 Entering Gaussian System, Link 0=g09
 Input=proala0142f.com
 Output=proala0142f.log
 Initial command:
 /usr/local/gauss09/g09/l1.exe "/mnt/gscratch/Gau-4062911.inp" -scrdir="/mnt/gscratch/"
 Entering Link 1 = /usr/local/gauss09/g09/l1.exe PID=   4062928.
  
 Copyright (c) 1988,1990,1992,1993,1995,1998,2003,2009,2015,
            Gaussian, Inc.  All Rights Reserved.
  
 This is part of the Gaussian(R) 09 program.  It is based on
 the Gaussian(R) 03 system (copyright 2003, Gaussian, Inc.),
 the Gaussian(R) 98 system (copyright 1998, Gaussian, Inc.),
 the Gaussian(R) 94 system (copyright 1995, Gaussian, Inc.),
 the Gaussian 92(TM) system (copyright 1992, Gaussian, Inc.),
 the Gaussian 90(TM) system (copyright 1990, Gaussian, Inc.),
 the Gaussian 88(TM) system (copyright 1988, Gaussian, Inc.),
 the Gaussian 86(TM) system (copyright 1986, Carnegie Mellon
 University), and the Gaussian 82(TM) system (copyright 1983,
 Carnegie Mellon University). Gaussian is a federally registered
 trademark of Gaussian, Inc.
  
 This software contains proprietary and confidential information,
 including trade secrets, belonging to Gaussian, Inc.
  
 This software is provided under written license and may be
 used, copied, transmitted, or stored only in accord with that
 written license.
  
 The following legend is applicable only to US Government
 contracts under FAR:
  
                    RESTRICTED RIGHTS LEGEND
  
 Use, reproduction and disclosure by the US Government is
 subject to restrictions as set forth in subparagraphs (a)
 and (c) of the Commercial Computer Software - Restricted
 Rights clause in FAR 52.227-19.
  
 Gaussian, Inc.
 340 Quinnipiac St., Bldg. 40, Wallingford CT 06492
  
  
 ---------------------------------------------------------------
 Warning -- This program may not be used in any manner that
 competes with the business of Gaussian, Inc. or will provide
 assistance to any competitor of Gaussian, Inc.  The licensee
 of this program is prohibited from giving any competitor of
 Gaussian, Inc. access to this program.  By using this program,
 the user acknowledges that Gaussian, Inc. is engaged in the
 business of creating and licensing software in the field of
 computational chemistry and represents and warrants to the
 licensee that it is not a competitor of Gaussian, Inc. and that
 it will not use this program in any manner prohibited above.
 ---------------------------------------------------------------
  

 Cite this work as:
 Gaussian 09, Revision E.01,
 M. J. Frisch, G. W. Trucks, H. B. Schlegel, G. E. Scuseria, 
 M. A. Robb, J. R. Cheeseman, G. Scalmani, V. Barone, B. Mennucci, 
 G. A. Petersson, H. Nakatsuji, M. Caricato, X. Li, H. P. Hratchian, 
 A. F. Izmaylov, J. Bloino, G. Zheng, J. L. Sonnenberg, M. Hada, 
 M. Ehara, K. Toyota, R. Fukuda, J. Hasegawa, M. Ishida, T. Nakajima, 
 Y. Honda, O. Kitao, H. Nakai, T. Vreven, J. A. Montgomery, Jr., 
 J. E. Peralta, F. Ogliaro, M. Bearpark, J. J. Heyd, E. Brothers, 
 K. N. Kudin, V. N. Staroverov, T. Keith, R. Kobayashi, J. Normand, 
 K. Raghavachari, A. Rendell, J. C. Burant, S. S. Iyengar, J. Tomasi, 
 M. Cossi, N. Rega, J. M. Millam, M. Klene, J. E. Knox, J. B. Cross, 
 V. Bakken, C. Adamo, J. Jaramillo, R. Gomperts, R. E. Stratmann, 
 O. Yazyev, A. J. Austin, R. Cammi, C. Pomelli, J. W. Ochterski, 
 R. L. Martin, K. Morokuma, V. G. Zakrzewski, G. A. Voth, 
 P. Salvador, J. J. Dannenberg, S. Dapprich, A. D. Daniels, 
 O. Farkas, J. B. Foresman, J. V. Ortiz, J. Cioslowski, 
 and D. J. Fox, Gaussian, Inc., Wallingford CT, 2013.
 
 ******************************************
 Gaussian 09:  ES64L-G09RevE.01 30-Nov-2015
                 7-Jul-2021 
 ******************************************
 %chk=proala0142.chk
 -------------------------------------------
 # freq rb3lyp/6-31+g* geom=check guess=read
 -------------------------------------------
 1/10=4,29=2,30=1,38=1/1,3;
 2/12=2,40=1/2;
 3/5=1,6=6,7=11,11=2,14=-4,16=1,25=1,30=1,71=2,74=-5,116=1,140=1/1,2,3;
 4/5=1/1;
 5/5=2,38=6,98=1/2;
 8/6=4,10=90,11=11/1;
 11/6=1,8=1,9=11,15=111,16=1/1,2,10;
 10/6=1/2;
 6/7=2,8=2,9=2,10=2,18=1,28=1/1;
 7/8=1,10=1,25=1/1,2,3,16;
 1/10=4,30=1/3;
 99//99;
 -----------------------------
 conformation 0142 from proala
 -----------------------------
 Structure from the checkpoint file:  "proala0142.chk"
 Charge =  0 Multiplicity = 1
 Redundant internal coordinates found in file.
 C,0,0.1480404669,2.9251668872,0.5209509845
 N,0,-0.3795620246,2.1930154682,-0.6257213188
 C,0,-0.1076974486,0.790305997,-0.3508054139
 C,0,-0.783715867,-0.1086081106,-1.3911034083
 O,0,-1.416399406,0.3673051902,-2.3272690145
 C,0,-0.5931179934,0.6628715732,1.1192407525
 C,0,-0.3621198468,2.0839766667,1.7137037476
 H,0,-0.0468170972,2.5035078834,-1.5340227244
 N,0,-0.6265855565,-1.4814272498,-1.3314028845
 C,0,-0.0342137324,-2.3939380569,-0.3557789564
 C,0,-0.8633731798,-2.5865331127,0.9252351296
 O,0,-0.4012138211,-2.8680331432,2.0102085272
 C,0,1.4505765881,-2.168076934,-0.0426951504
 O,0,-2.192066824,-2.4871701697,0.6956024377
 H,0,-2.6458905272,-2.6788472351,1.5384026838
 H,0,-1.1778896535,-1.9223865257,-2.0589114176
 H,0,-0.2276074813,3.9537807954,0.5268581921
 H,0,1.254956874,2.9673913845,0.5352916243
 H,0,0.9775934571,0.5662110333,-0.3840709115
 H,0,-0.0521080918,-0.1068820256,1.6749432878
 H,0,-1.6571490152,0.4080787561,1.1338268501
 H,0,0.3576660361,2.0737069107,2.5386276703
 H,0,-1.3012487925,2.4919856095,2.0993636273
 H,0,-0.1010044251,-3.3761345041,-0.8442537591
 H,0,1.6230624522,-1.2716351903,0.5561124468
 H,0,1.8383009075,-3.0184291693,0.5243420843
 H,0,2.0076840021,-2.0809027285,-0.9801750864
 Recover connectivity data from disk.

 GradGradGradGradGradGradGradGradGradGradGradGradGradGradGradGradGradGrad
 Berny optimization.
 Initialization pass.
                           ----------------------------
                           !    Initial Parameters    !
                           ! (Angstroms and Degrees)  !
 --------------------------                            --------------------------
 ! Name  Definition              Value          Derivative Info.                !
 --------------------------------------------------------------------------------
 ! R1    R(1,2)                  1.4592         calculate D2E/DX2 analytically  !
 ! R2    R(1,7)                  1.5461         calculate D2E/DX2 analytically  !
 ! R3    R(1,17)                 1.0951         calculate D2E/DX2 analytically  !
 ! R4    R(1,18)                 1.1078         calculate D2E/DX2 analytically  !
 ! R5    R(2,3)                  1.455          calculate D2E/DX2 analytically  !
 ! R6    R(2,8)                  1.0159         calculate D2E/DX2 analytically  !
 ! R7    R(3,4)                  1.5321         calculate D2E/DX2 analytically  !
 ! R8    R(3,6)                  1.5534         calculate D2E/DX2 analytically  !
 ! R9    R(3,19)                 1.1087         calculate D2E/DX2 analytically  !
 ! R10   R(4,5)                  1.226          calculate D2E/DX2 analytically  !
 ! R11   R(4,9)                  1.3831         calculate D2E/DX2 analytically  !
 ! R12   R(6,7)                  1.5577         calculate D2E/DX2 analytically  !
 ! R13   R(6,20)                 1.0927         calculate D2E/DX2 analytically  !
 ! R14   R(6,21)                 1.0942         calculate D2E/DX2 analytically  !
 ! R15   R(7,22)                 1.0949         calculate D2E/DX2 analytically  !
 ! R16   R(7,23)                 1.0942         calculate D2E/DX2 analytically  !
 ! R17   R(9,10)                 1.4613         calculate D2E/DX2 analytically  !
 ! R18   R(9,16)                 1.0137         calculate D2E/DX2 analytically  !
 ! R19   R(10,11)                1.538          calculate D2E/DX2 analytically  !
 ! R20   R(10,13)                1.5342         calculate D2E/DX2 analytically  !
 ! R21   R(10,24)                1.099          calculate D2E/DX2 analytically  !
 ! R22   R(11,12)                1.2124         calculate D2E/DX2 analytically  !
 ! R23   R(11,14)                1.352          calculate D2E/DX2 analytically  !
 ! R24   R(13,25)                1.0918         calculate D2E/DX2 analytically  !
 ! R25   R(13,26)                1.0931         calculate D2E/DX2 analytically  !
 ! R26   R(13,27)                1.094          calculate D2E/DX2 analytically  !
 ! R27   R(14,15)                0.9762         calculate D2E/DX2 analytically  !
 ! A1    A(2,1,7)              102.3529         calculate D2E/DX2 analytically  !
 ! A2    A(2,1,17)             110.5794         calculate D2E/DX2 analytically  !
 ! A3    A(2,1,18)             112.9902         calculate D2E/DX2 analytically  !
 ! A4    A(7,1,17)             113.1844         calculate D2E/DX2 analytically  !
 ! A5    A(7,1,18)             109.9038         calculate D2E/DX2 analytically  !
 ! A6    A(17,1,18)            107.8715         calculate D2E/DX2 analytically  !
 ! A7    A(1,2,3)              105.526          calculate D2E/DX2 analytically  !
 ! A8    A(1,2,8)              115.5181         calculate D2E/DX2 analytically  !
 ! A9    A(3,2,8)              113.7258         calculate D2E/DX2 analytically  !
 ! A10   A(2,3,4)              110.787          calculate D2E/DX2 analytically  !
 ! A11   A(2,3,6)              101.5083         calculate D2E/DX2 analytically  !
 ! A12   A(2,3,19)             111.8448         calculate D2E/DX2 analytically  !
 ! A13   A(4,3,6)              117.1662         calculate D2E/DX2 analytically  !
 ! A14   A(4,3,19)             107.0356         calculate D2E/DX2 analytically  !
 ! A15   A(6,3,19)             108.525          calculate D2E/DX2 analytically  !
 ! A16   A(3,4,5)              121.226          calculate D2E/DX2 analytically  !
 ! A17   A(3,4,9)              120.1947         calculate D2E/DX2 analytically  !
 ! A18   A(5,4,9)              118.4817         calculate D2E/DX2 analytically  !
 ! A19   A(3,6,7)              103.8855         calculate D2E/DX2 analytically  !
 ! A20   A(3,6,20)             112.6034         calculate D2E/DX2 analytically  !
 ! A21   A(3,6,21)             109.6089         calculate D2E/DX2 analytically  !
 ! A22   A(7,6,20)             112.0355         calculate D2E/DX2 analytically  !
 ! A23   A(7,6,21)             110.583          calculate D2E/DX2 analytically  !
 ! A24   A(20,6,21)            108.0978         calculate D2E/DX2 analytically  !
 ! A25   A(1,7,6)              104.5299         calculate D2E/DX2 analytically  !
 ! A26   A(1,7,22)             111.6804         calculate D2E/DX2 analytically  !
 ! A27   A(1,7,23)             110.6246         calculate D2E/DX2 analytically  !
 ! A28   A(6,7,22)             112.1163         calculate D2E/DX2 analytically  !
 ! A29   A(6,7,23)             110.3309         calculate D2E/DX2 analytically  !
 ! A30   A(22,7,23)            107.5901         calculate D2E/DX2 analytically  !
 ! A31   A(4,9,10)             134.0027         calculate D2E/DX2 analytically  !
 ! A32   A(4,9,16)             109.8159         calculate D2E/DX2 analytically  !
 ! A33   A(10,9,16)            115.3383         calculate D2E/DX2 analytically  !
 ! A34   A(9,10,11)            114.5648         calculate D2E/DX2 analytically  !
 ! A35   A(9,10,13)            115.8899         calculate D2E/DX2 analytically  !
 ! A36   A(9,10,24)            103.6919         calculate D2E/DX2 analytically  !
 ! A37   A(11,10,13)           111.7289         calculate D2E/DX2 analytically  !
 ! A38   A(11,10,24)           103.0335         calculate D2E/DX2 analytically  !
 ! A39   A(13,10,24)           106.326          calculate D2E/DX2 analytically  !
 ! A40   A(10,11,12)           124.6736         calculate D2E/DX2 analytically  !
 ! A41   A(10,11,14)           112.2796         calculate D2E/DX2 analytically  !
 ! A42   A(12,11,14)           122.9322         calculate D2E/DX2 analytically  !
 ! A43   A(10,13,25)           112.6885         calculate D2E/DX2 analytically  !
 ! A44   A(10,13,26)           109.5488         calculate D2E/DX2 analytically  !
 ! A45   A(10,13,27)           109.2509         calculate D2E/DX2 analytically  !
 ! A46   A(25,13,26)           107.3487         calculate D2E/DX2 analytically  !
 ! A47   A(25,13,27)           108.9127         calculate D2E/DX2 analytically  !
 ! A48   A(26,13,27)           109.0185         calculate D2E/DX2 analytically  !
 ! A49   A(11,14,15)           107.2049         calculate D2E/DX2 analytically  !
 ! D1    D(7,1,2,3)            -44.9705         calculate D2E/DX2 analytically  !
 ! D2    D(7,1,2,8)           -171.5087         calculate D2E/DX2 analytically  !
 ! D3    D(17,1,2,3)          -165.8158         calculate D2E/DX2 analytically  !
 ! D4    D(17,1,2,8)            67.646          calculate D2E/DX2 analytically  !
 ! D5    D(18,1,2,3)            73.161          calculate D2E/DX2 analytically  !
 ! D6    D(18,1,2,8)           -53.3772         calculate D2E/DX2 analytically  !
 ! D7    D(2,1,7,6)             23.8351         calculate D2E/DX2 analytically  !
 ! D8    D(2,1,7,22)           145.2727         calculate D2E/DX2 analytically  !
 ! D9    D(2,1,7,23)           -94.9185         calculate D2E/DX2 analytically  !
 ! D10   D(17,1,7,6)           142.8634         calculate D2E/DX2 analytically  !
 ! D11   D(17,1,7,22)          -95.699          calculate D2E/DX2 analytically  !
 ! D12   D(17,1,7,23)           24.1098         calculate D2E/DX2 analytically  !
 ! D13   D(18,1,7,6)           -96.4648         calculate D2E/DX2 analytically  !
 ! D14   D(18,1,7,22)           24.9729         calculate D2E/DX2 analytically  !
 ! D15   D(18,1,7,23)          144.7816         calculate D2E/DX2 analytically  !
 ! D16   D(1,2,3,4)            172.2272         calculate D2E/DX2 analytically  !
 ! D17   D(1,2,3,6)             47.0806         calculate D2E/DX2 analytically  !
 ! D18   D(1,2,3,19)           -68.4466         calculate D2E/DX2 analytically  !
 ! D19   D(8,2,3,4)            -60.1478         calculate D2E/DX2 analytically  !
 ! D20   D(8,2,3,6)            174.7056         calculate D2E/DX2 analytically  !
 ! D21   D(8,2,3,19)            59.1784         calculate D2E/DX2 analytically  !
 ! D22   D(2,3,4,5)              2.1788         calculate D2E/DX2 analytically  !
 ! D23   D(2,3,4,9)            178.5327         calculate D2E/DX2 analytically  !
 ! D24   D(6,3,4,5)            117.943          calculate D2E/DX2 analytically  !
 ! D25   D(6,3,4,9)            -65.7031         calculate D2E/DX2 analytically  !
 ! D26   D(19,3,4,5)          -120.0012         calculate D2E/DX2 analytically  !
 ! D27   D(19,3,4,9)            56.3527         calculate D2E/DX2 analytically  !
 ! D28   D(2,3,6,7)            -29.5412         calculate D2E/DX2 analytically  !
 ! D29   D(2,3,6,20)          -150.9775         calculate D2E/DX2 analytically  !
 ! D30   D(2,3,6,21)            88.6563         calculate D2E/DX2 analytically  !
 ! D31   D(4,3,6,7)           -150.3096         calculate D2E/DX2 analytically  !
 ! D32   D(4,3,6,20)            88.254          calculate D2E/DX2 analytically  !
 ! D33   D(4,3,6,21)           -32.1121         calculate D2E/DX2 analytically  !
 ! D34   D(19,3,6,7)            88.4089         calculate D2E/DX2 analytically  !
 ! D35   D(19,3,6,20)          -33.0274         calculate D2E/DX2 analytically  !
 ! D36   D(19,3,6,21)         -153.3936         calculate D2E/DX2 analytically  !
 ! D37   D(3,4,9,10)             8.2965         calculate D2E/DX2 analytically  !
 ! D38   D(3,4,9,16)           176.9385         calculate D2E/DX2 analytically  !
 ! D39   D(5,4,9,10)          -175.2507         calculate D2E/DX2 analytically  !
 ! D40   D(5,4,9,16)            -6.6086         calculate D2E/DX2 analytically  !
 ! D41   D(3,6,7,1)              3.4517         calculate D2E/DX2 analytically  !
 ! D42   D(3,6,7,22)          -117.6977         calculate D2E/DX2 analytically  !
 ! D43   D(3,6,7,23)           122.4043         calculate D2E/DX2 analytically  !
 ! D44   D(20,6,7,1)           125.2666         calculate D2E/DX2 analytically  !
 ! D45   D(20,6,7,22)            4.1173         calculate D2E/DX2 analytically  !
 ! D46   D(20,6,7,23)         -115.7807         calculate D2E/DX2 analytically  !
 ! D47   D(21,6,7,1)          -114.0716         calculate D2E/DX2 analytically  !
 ! D48   D(21,6,7,22)          124.779          calculate D2E/DX2 analytically  !
 ! D49   D(21,6,7,23)            4.8811         calculate D2E/DX2 analytically  !
 ! D50   D(4,9,10,11)           73.1345         calculate D2E/DX2 analytically  !
 ! D51   D(4,9,10,13)          -59.267          calculate D2E/DX2 analytically  !
 ! D52   D(4,9,10,24)         -175.361          calculate D2E/DX2 analytically  !
 ! D53   D(16,9,10,11)         -95.0361         calculate D2E/DX2 analytically  !
 ! D54   D(16,9,10,13)         132.5624         calculate D2E/DX2 analytically  !
 ! D55   D(16,9,10,24)          16.4684         calculate D2E/DX2 analytically  !
 ! D56   D(9,10,11,12)        -152.0045         calculate D2E/DX2 analytically  !
 ! D57   D(9,10,11,14)          31.8001         calculate D2E/DX2 analytically  !
 ! D58   D(13,10,11,12)        -17.6589         calculate D2E/DX2 analytically  !
 ! D59   D(13,10,11,14)        166.1456         calculate D2E/DX2 analytically  !
 ! D60   D(24,10,11,12)         96.098          calculate D2E/DX2 analytically  !
 ! D61   D(24,10,11,14)        -80.0974         calculate D2E/DX2 analytically  !
 ! D62   D(9,10,13,25)          72.4033         calculate D2E/DX2 analytically  !
 ! D63   D(9,10,13,26)        -168.1631         calculate D2E/DX2 analytically  !
 ! D64   D(9,10,13,27)         -48.8033         calculate D2E/DX2 analytically  !
 ! D65   D(11,10,13,25)        -61.2962         calculate D2E/DX2 analytically  !
 ! D66   D(11,10,13,26)         58.1374         calculate D2E/DX2 analytically  !
 ! D67   D(11,10,13,27)        177.4972         calculate D2E/DX2 analytically  !
 ! D68   D(24,10,13,25)       -172.9937         calculate D2E/DX2 analytically  !
 ! D69   D(24,10,13,26)        -53.5601         calculate D2E/DX2 analytically  !
 ! D70   D(24,10,13,27)         65.7997         calculate D2E/DX2 analytically  !
 ! D71   D(10,11,14,15)        176.315          calculate D2E/DX2 analytically  !
 ! D72   D(12,11,14,15)          0.0428         calculate D2E/DX2 analytically  !
 --------------------------------------------------------------------------------
 Trust Radius=3.00D-01 FncErr=1.00D-07 GrdErr=1.00D-07
 Number of steps in this run=      2 maximum allowed number of steps=      2.
 GradGradGradGradGradGradGradGradGradGradGradGradGradGradGradGradGradGrad

                          Input orientation:                          
 ---------------------------------------------------------------------
 Center     Atomic      Atomic             Coordinates (Angstroms)
 Number     Number       Type             X           Y           Z
 ---------------------------------------------------------------------
      1          6           0        0.148040    2.925167    0.520951
      2          7           0       -0.379562    2.193015   -0.625721
      3          6           0       -0.107697    0.790306   -0.350805
      4          6           0       -0.783716   -0.108608   -1.391103
      5          8           0       -1.416399    0.367305   -2.327269
      6          6           0       -0.593118    0.662872    1.119241
      7          6           0       -0.362120    2.083977    1.713704
      8          1           0       -0.046817    2.503508   -1.534023
      9          7           0       -0.626586   -1.481427   -1.331403
     10          6           0       -0.034214   -2.393938   -0.355779
     11          6           0       -0.863373   -2.586533    0.925235
     12          8           0       -0.401214   -2.868033    2.010209
     13          6           0        1.450577   -2.168077   -0.042695
     14          8           0       -2.192067   -2.487170    0.695602
     15          1           0       -2.645891   -2.678847    1.538403
     16          1           0       -1.177890   -1.922387   -2.058911
     17          1           0       -0.227607    3.953781    0.526858
     18          1           0        1.254957    2.967391    0.535292
     19          1           0        0.977593    0.566211   -0.384071
     20          1           0       -0.052108   -0.106882    1.674943
     21          1           0       -1.657149    0.408079    1.133827
     22          1           0        0.357666    2.073707    2.538628
     23          1           0       -1.301249    2.491986    2.099364
     24          1           0       -0.101004   -3.376135   -0.844254
     25          1           0        1.623062   -1.271635    0.556112
     26          1           0        1.838301   -3.018429    0.524342
     27          1           0        2.007684   -2.080903   -0.980175
 ---------------------------------------------------------------------
                    Distance matrix (angstroms):
                    1          2          3          4          5
     1  C    0.000000
     2  N    1.459201   0.000000
     3  C    2.320128   1.455020   0.000000
     4  C    3.705120   2.458988   1.532079   0.000000
     5  O    4.135515   2.702501   2.407912   1.226046   0.000000
     6  C    2.454638   2.330631   1.553354   2.633123   3.555781
     7  C    1.546132   2.342030   2.449594   3.824264   4.515299
     8  H    2.106818   1.015941   2.082972   2.717829   2.658638
     9  N    4.842451   3.749738   2.528159   1.383071   2.243517
    10  C    5.393955   4.607849   3.185096   2.618470   3.663560
    11  C    5.618295   5.048131   3.688139   3.392916   4.428293
    12  O    6.006724   5.706383   4.363941   4.396551   5.505609
    13  C    5.287289   4.765339   3.357853   3.324407   4.457240
    14  O    5.899152   5.189914   4.022613   3.463431   4.229355
    15  H    6.343992   5.792644   4.695376   4.319239   5.072880
    16  H    5.649120   4.430338   3.379591   1.972595   2.317669
    17  H    1.095077   2.109935   3.285155   4.526681   4.735195
    18  H    1.107814   2.149247   2.716928   4.162806   4.700090
    19  H    2.659304   2.132313   1.108685   2.138155   3.089787
    20  H    3.250397   3.269528   2.216234   3.152126   4.254862
    21  H    3.157540   2.813225   2.179686   2.721236   3.469698
    22  H    2.199988   3.251283   3.195701   4.637676   5.453079
    23  H    2.186200   2.892227   3.213037   4.383411   4.911477
    24  H    6.452302   5.580393   4.195565   3.382583   4.235911
    25  H    4.448604   4.172654   2.840710   3.307093   4.498705
    26  H    6.179266   5.779335   4.365691   4.360156   5.494357
    27  H    5.547286   4.908254   3.621434   3.442488   4.419585
                    6          7          8          9         10
     6  C    0.000000
     7  C    1.557654   0.000000
     8  H    3.275087   3.289856   0.000000
     9  N    3.256500   4.696245   4.031984   0.000000
    10  C    3.439788   4.943885   5.037201   1.461308   0.000000
    11  C    3.266390   4.763045   5.711675   2.523835   1.538049
    12  O    3.646634   4.961033   6.445202   3.624891   2.440769
    13  C    3.679817   4.944772   5.127373   2.539066   1.534157
    14  O    3.557931   5.027984   5.871984   2.751545   2.402171
    15  H    3.944193   5.284963   6.561386   3.707720   3.238820
    16  H    4.138378   5.563187   4.598193   1.013731   2.104998
    17  H    3.363718   2.218753   2.526501   5.757934   6.411707
    18  H    3.011177   2.187239   2.488346   5.178488   5.585680
    19  H    2.176333   2.915322   2.474859   2.768330   3.128424
    20  H    1.092711   2.213023   4.136620   3.355222   3.058558
    21  H    1.094209   2.195903   3.755185   3.272560   3.564287
    22  H    2.215650   1.094850   4.115193   5.346482   5.337697
    23  H    2.192658   1.094152   3.843856   5.292763   5.612963
    24  H    4.517860   6.035242   5.920212   2.025701   1.098990
    25  H    2.995144   4.067075   4.626972   2.944086   2.199471
    26  H    4.451705   5.682515   6.187271   3.447003   2.161230
    27  H    4.324351   5.497197   5.054161   2.724355   2.158057
                   11         12         13         14         15
    11  C    0.000000
    12  O    1.212436   0.000000
    13  C    2.542903   2.851926   0.000000
    14  O    1.352047   2.253974   3.730383   0.000000
    15  H    1.887290   2.301514   4.420611   0.976221   0.000000
    16  H    3.073295   4.249142   3.321796   2.989127   3.958273
    17  H    6.583207   6.983381   6.373212   6.735980   7.131835
    18  H    5.956967   6.242633   5.171593   6.454449   6.935622
    19  H    3.878561   4.407688   2.795815   4.531620   5.230291
    20  H    2.714569   2.803254   3.075202   3.347283   3.655319
    21  H    3.105043   3.616397   4.204609   2.976683   3.266558
    22  H    5.080532   5.027516   5.084330   5.540711   5.710392
    23  H    5.230838   5.435790   5.820407   5.249390   5.372174
    24  H    2.082251   2.914832   2.123512   2.744805   3.555236
    25  H    2.836824   2.959827   1.091755   4.006519   4.600989
    26  H    2.765193   2.691811   1.093142   4.068836   4.609947
    27  H    3.482703   3.919790   1.094000   4.539955   5.325085
                   16         17         18         19         20
    16  H    0.000000
    17  H    6.489883   0.000000
    18  H    6.046367   1.780739   0.000000
    19  H    3.693821   3.709168   2.586083   0.000000
    20  H    4.301757   4.223492   3.529643   2.398516   0.000000
    21  H    3.981750   3.870918   3.922842   3.044813   1.770352
    22  H    6.282043   2.815038   2.370054   3.346494   2.380931
    23  H    6.065736   2.400484   3.034225   3.881904   2.914549
    24  H    2.179096   7.458125   6.631900   4.113056   4.127561
    25  H    3.886793   5.543537   4.255030   2.162927   2.326935
    26  H    4.119698   7.271843   6.014188   3.796798   3.657135
    27  H    3.366999   6.609469   5.324332   2.902350   3.897327
                   21         22         23         24         25
    21  H    0.000000
    22  H    2.967703   0.000000
    23  H    2.324133   1.766326   0.000000
    24  H    4.544740   6.430788   6.673852   0.000000
    25  H    3.730279   4.089365   5.009797   3.059796   0.000000
    26  H    4.932606   5.672696   6.534687   2.400398   1.760291
    27  H    4.908669   5.689052   6.429922   2.478440   1.778490
                   26         27
    26  H    0.000000
    27  H    1.780792   0.000000
 Stoichiometry    C8H14N2O3
 Framework group  C1[X(C8H14N2O3)]
 Deg. of freedom    75
 Full point group                 C1      NOp   1
 Largest Abelian subgroup         C1      NOp   1
 Largest concise Abelian subgroup C1      NOp   1
                         Standard orientation:                         
 ---------------------------------------------------------------------
 Center     Atomic      Atomic             Coordinates (Angstroms)
 Number     Number       Type             X           Y           Z
 ---------------------------------------------------------------------
      1          6           0       -3.299063   -0.760323    0.314389
      2          7           0       -2.633211    0.492857   -0.025386
      3          6           0       -1.231352    0.292070    0.308618
      4          6           0       -0.382059    1.470259   -0.179069
      5          8           0       -0.894582    2.438024   -0.730376
      6          6           0       -0.955319   -1.095045   -0.333742
      7          6           0       -2.334177   -1.816946   -0.271330
      8          1           0       -3.036280    1.328742    0.388097
      9          7           0        0.979259    1.494149    0.064095
     10          6           0        1.931767    0.524619    0.600905
     11          6           0        2.277582   -0.629024   -0.355711
     12          8           0        2.619016   -1.737941   -0.003961
     13          6           0        1.644429    0.018623    2.020426
     14          8           0        2.238919   -0.248641   -1.652570
     15          1           0        2.525617   -1.013890   -2.186618
     16          1           0        1.391151    2.313634   -0.367690
     17          1           0       -4.299578   -0.797206   -0.129235
     18          1           0       -3.405707   -0.911324    1.406670
     19          1           0       -1.075658    0.210586    1.403287
     20          1           0       -0.176173   -1.653295    0.190954
     21          1           0       -0.637379   -0.962070   -1.372262
     22          1           0       -2.299195   -2.719695    0.347150
     23          1           0       -2.652671   -2.115608   -1.274590
     24          1           0        2.872887    1.089175    0.658769
     25          1           0        0.791375   -0.661546    2.060423
     26          1           0        2.513802   -0.526351    2.397460
     27          1           0        1.447803    0.872884    2.674958
 ---------------------------------------------------------------------
 Rotational constants (GHZ):      1.1369075      0.5603971      0.4759362
 Standard basis: 6-31+G(d) (6D, 7F)
 There are   275 symmetry adapted cartesian basis functions of A   symmetry.
 There are   275 symmetry adapted basis functions of A   symmetry.
   275 basis functions,   472 primitive gaussians,   275 cartesian basis functions
    50 alpha electrons       50 beta electrons
       nuclear repulsion energy       861.6754290058 Hartrees.
 NAtoms=   27 NActive=   27 NUniq=   27 SFac= 1.00D+00 NAtFMM=   60 NAOKFM=F Big=F
 Integral buffers will be    131072 words long.
 Raffenetti 2 integral format.
 Two-electron integral symmetry is turned on.
 One-electron integrals computed using PRISM.
 NBasis=   275 RedAO= T EigKep=  9.19D-06  NBF=   275
 NBsUse=   275 1.00D-06 EigRej= -1.00D+00 NBFU=   275
 Initial guess from the checkpoint file:  "proala0142.chk"
 B after Tr=    -0.000000    0.000000   -0.000000
         Rot=    1.000000    0.000000   -0.000000    0.000000 Ang=   0.00 deg.
 Requested convergence on RMS density matrix=1.00D-08 within 128 cycles.
 Requested convergence on MAX density matrix=1.00D-06.
 Requested convergence on             energy=1.00D-06.
 No special actions if energy rises.
 SCF Done:  E(RB3LYP) =  -648.485785943     A.U. after    1 cycles
            NFock=  1  Conv=0.14D-08     -V/T= 2.0095
 DoSCS=F DFT=T ScalE2(SS,OS)=  1.000000  1.000000
 Range of M.O.s used for correlation:     1   275
 NBasis=   275 NAE=    50 NBE=    50 NFC=     0 NFV=     0
 NROrb=    275 NOA=    50 NOB=    50 NVA=   225 NVB=   225

 **** Warning!!: The largest alpha MO coefficient is  0.61029116D+02

 Symmetrizing basis deriv contribution to polar:
 IMax=3 JMax=2 DiffMx= 0.00D+00
 G2DrvN: will do    28 centers at a time, making    1 passes.
 Calling FoFCou, ICntrl=  3107 FMM=F I1Cent=   0 AccDes= 0.00D+00.
 End of G2Drv F.D. properties file   721 does not exist.
 End of G2Drv F.D. properties file   722 does not exist.
 End of G2Drv F.D. properties file   788 does not exist.
          IDoAtm=111111111111111111111111111
          Differentiating once with respect to electric field.
                with respect to dipole field.
          Differentiating once with respect to nuclear coordinates.
          There are    84 degrees of freedom in the 1st order CPHF.  IDoFFX=6 NUNeed=     3.
     81 vectors produced by pass  0 Test12= 1.34D-14 1.19D-09 XBig12= 8.53D+01 2.43D+00.
 AX will form    81 AO Fock derivatives at one time.
     81 vectors produced by pass  1 Test12= 1.34D-14 1.19D-09 XBig12= 1.38D+01 8.39D-01.
     81 vectors produced by pass  2 Test12= 1.34D-14 1.19D-09 XBig12= 1.45D-01 4.07D-02.
     81 vectors produced by pass  3 Test12= 1.34D-14 1.19D-09 XBig12= 5.08D-04 2.42D-03.
     81 vectors produced by pass  4 Test12= 1.34D-14 1.19D-09 XBig12= 8.32D-07 7.93D-05.
     59 vectors produced by pass  5 Test12= 1.34D-14 1.19D-09 XBig12= 7.83D-10 2.08D-06.
     10 vectors produced by pass  6 Test12= 1.34D-14 1.19D-09 XBig12= 1.21D-12 9.94D-08.
      5 vectors produced by pass  7 Test12= 1.34D-14 1.19D-09 XBig12= 3.80D-14 1.73D-08.
      2 vectors produced by pass  8 Test12= 1.34D-14 1.19D-09 XBig12= 2.89D-16 2.02D-09.
 InvSVY:  IOpt=1 It=  1 EMax= 1.24D-14
 Solved reduced A of dimension   481 with    84 vectors.
 Isotropic polarizability for W=    0.000000      115.98 Bohr**3.
 End of Minotr F.D. properties file   721 does not exist.
 End of Minotr F.D. properties file   722 does not exist.
 End of Minotr F.D. properties file   788 does not exist.

 **********************************************************************

            Population analysis using the SCF density.

 **********************************************************************

 Orbital symmetries:
       Occupied  (A) (A) (A) (A) (A) (A) (A) (A) (A) (A) (A) (A)
                 (A) (A) (A) (A) (A) (A) (A) (A) (A) (A) (A) (A)
                 (A) (A) (A) (A) (A) (A) (A) (A) (A) (A) (A) (A)
                 (A) (A) (A) (A) (A) (A) (A) (A) (A) (A) (A) (A)
                 (A) (A)
       Virtual   (A) (A) (A) (A) (A) (A) (A) (A) (A) (A) (A) (A)
                 (A) (A) (A) (A) (A) (A) (A) (A) (A) (A) (A) (A)
                 (A) (A) (A) (A) (A) (A) (A) (A) (A) (A) (A) (A)
                 (A) (A) (A) (A) (A) (A) (A) (A) (A) (A) (A) (A)
                 (A) (A) (A) (A) (A) (A) (A) (A) (A) (A) (A) (A)
                 (A) (A) (A) (A) (A) (A) (A) (A) (A) (A) (A) (A)
                 (A) (A) (A) (A) (A) (A) (A) (A) (A) (A) (A) (A)
                 (A) (A) (A) (A) (A) (A) (A) (A) (A) (A) (A) (A)
                 (A) (A) (A) (A) (A) (A) (A) (A) (A) (A) (A) (A)
                 (A) (A) (A) (A) (A) (A) (A) (A) (A) (A) (A) (A)
                 (A) (A) (A) (A) (A) (A) (A) (A) (A) (A) (A) (A)
                 (A) (A) (A) (A) (A) (A) (A) (A) (A) (A) (A) (A)
                 (A) (A) (A) (A) (A) (A) (A) (A) (A) (A) (A) (A)
                 (A) (A) (A) (A) (A) (A) (A) (A) (A) (A) (A) (A)
                 (A) (A) (A) (A) (A) (A) (A) (A) (A) (A) (A) (A)
                 (A) (A) (A) (A) (A) (A) (A) (A) (A) (A) (A) (A)
                 (A) (A) (A) (A) (A) (A) (A) (A) (A) (A) (A) (A)
                 (A) (A) (A) (A) (A) (A) (A) (A) (A) (A) (A) (A)
                 (A) (A) (A) (A) (A) (A) (A) (A) (A)
 The electronic state is 1-A.
 Alpha  occ. eigenvalues --  -19.22787 -19.17270 -19.12642 -14.37447 -14.32466
 Alpha  occ. eigenvalues --  -10.34891 -10.29872 -10.27384 -10.23310 -10.21325
 Alpha  occ. eigenvalues --  -10.20435 -10.19765 -10.19177  -1.13554  -1.04608
 Alpha  occ. eigenvalues --   -1.04494  -0.93651  -0.92692  -0.79427  -0.76784
 Alpha  occ. eigenvalues --   -0.74642  -0.70203  -0.64684  -0.61801  -0.58963
 Alpha  occ. eigenvalues --   -0.57338  -0.54909  -0.52164  -0.51729  -0.51003
 Alpha  occ. eigenvalues --   -0.49626  -0.46106  -0.45335  -0.43658  -0.43429
 Alpha  occ. eigenvalues --   -0.42369  -0.41164  -0.40800  -0.39352  -0.38855
 Alpha  occ. eigenvalues --   -0.38288  -0.38012  -0.35675  -0.35099  -0.34806
 Alpha  occ. eigenvalues --   -0.33176  -0.31580  -0.26341  -0.26004  -0.22812
 Alpha virt. eigenvalues --   -0.03359  -0.01196  -0.00526   0.00547   0.00838
 Alpha virt. eigenvalues --    0.02238   0.02489   0.03488   0.03955   0.04739
 Alpha virt. eigenvalues --    0.05101   0.05861   0.06512   0.07071   0.07434
 Alpha virt. eigenvalues --    0.07879   0.08809   0.09432   0.10144   0.10352
 Alpha virt. eigenvalues --    0.10925   0.11316   0.12364   0.12891   0.13513
 Alpha virt. eigenvalues --    0.13777   0.14395   0.14907   0.15177   0.15575
 Alpha virt. eigenvalues --    0.16316   0.16708   0.17378   0.17982   0.18499
 Alpha virt. eigenvalues --    0.18817   0.19211   0.19636   0.20337   0.20536
 Alpha virt. eigenvalues --    0.21654   0.22180   0.22628   0.23706   0.24080
 Alpha virt. eigenvalues --    0.24223   0.25162   0.25562   0.26424   0.26587
 Alpha virt. eigenvalues --    0.27624   0.27690   0.28064   0.28913   0.29204
 Alpha virt. eigenvalues --    0.29346   0.30985   0.31297   0.31650   0.31807
 Alpha virt. eigenvalues --    0.32758   0.33097   0.33652   0.34335   0.34913
 Alpha virt. eigenvalues --    0.35632   0.36108   0.37447   0.37680   0.38308
 Alpha virt. eigenvalues --    0.39208   0.39436   0.40136   0.40688   0.42626
 Alpha virt. eigenvalues --    0.43908   0.44963   0.46348   0.48567   0.49027
 Alpha virt. eigenvalues --    0.53513   0.62001   0.64525   0.65397   0.66525
 Alpha virt. eigenvalues --    0.67551   0.68483   0.69640   0.71751   0.72861
 Alpha virt. eigenvalues --    0.73390   0.75421   0.76856   0.78051   0.78975
 Alpha virt. eigenvalues --    0.80255   0.81174   0.83790   0.84576   0.87644
 Alpha virt. eigenvalues --    0.88309   0.90466   0.91730   0.94525   0.95522
 Alpha virt. eigenvalues --    0.96899   0.97351   0.98998   0.99988   1.01588
 Alpha virt. eigenvalues --    1.02100   1.03414   1.03694   1.04307   1.07136
 Alpha virt. eigenvalues --    1.10079   1.10508   1.11973   1.12933   1.14573
 Alpha virt. eigenvalues --    1.14983   1.16184   1.17230   1.17953   1.19882
 Alpha virt. eigenvalues --    1.21324   1.21741   1.29444   1.29647   1.30742
 Alpha virt. eigenvalues --    1.31411   1.33211   1.33952   1.34223   1.35023
 Alpha virt. eigenvalues --    1.37029   1.39279   1.40631   1.41575   1.42419
 Alpha virt. eigenvalues --    1.43624   1.45778   1.48788   1.50773   1.55857
 Alpha virt. eigenvalues --    1.56052   1.59339   1.62872   1.63566   1.66518
 Alpha virt. eigenvalues --    1.68923   1.70943   1.74499   1.76015   1.78663
 Alpha virt. eigenvalues --    1.79416   1.80594   1.81153   1.82836   1.84051
 Alpha virt. eigenvalues --    1.85561   1.86098   1.88094   1.88552   1.91033
 Alpha virt. eigenvalues --    1.93229   1.94456   1.97525   2.00079   2.01460
 Alpha virt. eigenvalues --    2.02371   2.03673   2.04938   2.06607   2.09042
 Alpha virt. eigenvalues --    2.09902   2.10833   2.15092   2.15899   2.17039
 Alpha virt. eigenvalues --    2.18625   2.23357   2.23787   2.30349   2.31269
 Alpha virt. eigenvalues --    2.34107   2.36514   2.39863   2.44080   2.46778
 Alpha virt. eigenvalues --    2.48550   2.50782   2.51587   2.54169   2.56199
 Alpha virt. eigenvalues --    2.58963   2.60465   2.62527   2.64708   2.67122
 Alpha virt. eigenvalues --    2.69392   2.72121   2.77543   2.79640   2.80725
 Alpha virt. eigenvalues --    2.91751   2.93573   3.02839   3.09904   3.12010
 Alpha virt. eigenvalues --    3.15947   3.20897   4.11549   4.15977   4.23819
 Alpha virt. eigenvalues --    4.28117   4.31034   4.33046   4.37210   4.42975
 Alpha virt. eigenvalues --    4.50295   4.52999   4.64576   4.66039   4.79193
          Condensed to atoms (all electrons):
               1          2          3          4          5          6
     1  C    6.411210   0.127270  -0.803029  -0.060548   0.016922   1.147793
     2  N    0.127270   7.326539  -0.492946   0.359935  -0.007199  -0.060957
     3  C   -0.803029  -0.492946  11.674976  -2.710520  -0.042378  -1.750138
     4  C   -0.060548   0.359935  -2.710520   7.302214   0.422414  -0.176681
     5  O    0.016922  -0.007199  -0.042378   0.422414   8.206714  -0.009778
     6  C    1.147793  -0.060957  -1.750138  -0.176681  -0.009778  10.429669
     7  C   -1.270177   0.045723   0.758799   0.184801  -0.018042  -3.968452
     8  H   -0.072812   0.274111   0.065651  -0.043372   0.000782  -0.021471
     9  N   -0.000020   0.000467  -0.474766   0.371003  -0.140782   0.043316
    10  C   -0.036945   0.066718  -0.308637  -0.064935   0.013566   0.119112
    11  C    0.040923  -0.027939   0.190611  -0.167006   0.001419  -0.093547
    12  O   -0.000039   0.000581  -0.018214   0.010433   0.000325  -0.017167
    13  C   -0.002704   0.001541  -0.062442   0.105302   0.000221  -0.031189
    14  O    0.000330   0.000042   0.006164   0.015716   0.004044  -0.019996
    15  H    0.000260  -0.000053   0.005908  -0.006947   0.000068  -0.005751
    16  H    0.000748  -0.001291   0.079494  -0.043885   0.010960  -0.008684
    17  H    0.464414  -0.043399  -0.062259   0.010538  -0.000238   0.075896
    18  H    0.526140  -0.113895   0.003418  -0.020733   0.000301   0.123453
    19  H    0.012743  -0.140537   0.534714  -0.112030   0.005042  -0.036543
    20  H    0.011253   0.009638  -0.077612   0.005399  -0.000758   0.336836
    21  H    0.014680   0.019330  -0.159993   0.021312   0.002208   0.447293
    22  H   -0.079510   0.006708   0.024744   0.000424   0.000063  -0.119656
    23  H   -0.055763   0.011122   0.013410   0.008089  -0.000123  -0.145337
    24  H   -0.000014   0.000101  -0.005034   0.008342   0.000083  -0.002281
    25  H    0.002062  -0.000718   0.029149  -0.013284   0.000143  -0.016246
    26  H    0.000050  -0.000152   0.001859   0.001720   0.000026  -0.000466
    27  H    0.000290   0.000059  -0.000489  -0.002695   0.000005   0.001007
               7          8          9         10         11         12
     1  C   -1.270177  -0.072812  -0.000020  -0.036945   0.040923  -0.000039
     2  N    0.045723   0.274111   0.000467   0.066718  -0.027939   0.000581
     3  C    0.758799   0.065651  -0.474766  -0.308637   0.190611  -0.018214
     4  C    0.184801  -0.043372   0.371003  -0.064935  -0.167006   0.010433
     5  O   -0.018042   0.000782  -0.140782   0.013566   0.001419   0.000325
     6  C   -3.968452  -0.021471   0.043316   0.119112  -0.093547  -0.017167
     7  C   10.206252   0.042558  -0.074839   0.309965  -0.215283   0.002941
     8  H    0.042558   0.369613   0.000420   0.002570  -0.000345  -0.000002
     9  N   -0.074839   0.000420   7.804674  -0.476637   0.177964   0.009269
    10  C    0.309965   0.002570  -0.476637   8.680974  -1.002887  -0.233926
    11  C   -0.215283  -0.000345   0.177964  -1.002887   5.901051   0.624765
    12  O    0.002941  -0.000002   0.009269  -0.233926   0.624765   8.137376
    13  C   -0.041518  -0.000804   0.027184  -0.530282  -0.154989   0.019098
    14  O   -0.028080  -0.000006  -0.021403  -0.308117   0.359749  -0.162256
    15  H   -0.001635   0.000000   0.001452   0.014401   0.036182   0.007541
    16  H    0.000187  -0.000002   0.209136   0.038383  -0.033066  -0.000280
    17  H   -0.115941  -0.000776   0.000016  -0.000314  -0.000022   0.000001
    18  H   -0.257030  -0.001968   0.000658  -0.002346   0.002011  -0.000002
    19  H   -0.093868  -0.001929   0.030643  -0.048449   0.018844   0.000243
    20  H    0.023603  -0.000197  -0.005511   0.036510   0.007090  -0.003269
    21  H   -0.035865  -0.000193   0.007471  -0.016987  -0.002928   0.000973
    22  H    0.486902  -0.000177   0.000150  -0.003912   0.000930   0.000002
    23  H    0.492806  -0.000194  -0.000148   0.002032   0.000300  -0.000034
    24  H    0.000078  -0.000000  -0.031797   0.311723   0.006789  -0.002776
    25  H    0.000511   0.000001  -0.002369  -0.071498   0.029255  -0.005460
    26  H   -0.000445  -0.000000   0.014772  -0.096105  -0.001112   0.000452
    27  H   -0.000521   0.000000   0.007052  -0.102886   0.012140   0.001779
              13         14         15         16         17         18
     1  C   -0.002704   0.000330   0.000260   0.000748   0.464414   0.526140
     2  N    0.001541   0.000042  -0.000053  -0.001291  -0.043399  -0.113895
     3  C   -0.062442   0.006164   0.005908   0.079494  -0.062259   0.003418
     4  C    0.105302   0.015716  -0.006947  -0.043885   0.010538  -0.020733
     5  O    0.000221   0.004044   0.000068   0.010960  -0.000238   0.000301
     6  C   -0.031189  -0.019996  -0.005751  -0.008684   0.075896   0.123453
     7  C   -0.041518  -0.028080  -0.001635   0.000187  -0.115941  -0.257030
     8  H   -0.000804  -0.000006   0.000000  -0.000002  -0.000776  -0.001968
     9  N    0.027184  -0.021403   0.001452   0.209136   0.000016   0.000658
    10  C   -0.530282  -0.308117   0.014401   0.038383  -0.000314  -0.002346
    11  C   -0.154989   0.359749   0.036182  -0.033066  -0.000022   0.002011
    12  O    0.019098  -0.162256   0.007541  -0.000280   0.000001  -0.000002
    13  C    6.022040   0.044966  -0.004239  -0.006906   0.000115  -0.000224
    14  O    0.044966   8.503288   0.124959   0.000413   0.000002  -0.000002
    15  H   -0.004239   0.124959   0.314840   0.000015   0.000000  -0.000000
    16  H   -0.006906   0.000413   0.000015   0.330693  -0.000000   0.000000
    17  H    0.000115   0.000002   0.000000  -0.000000   0.532572  -0.047586
    18  H   -0.000224  -0.000002  -0.000000   0.000000  -0.047586   0.603898
    19  H    0.014131  -0.000106  -0.000002  -0.000191  -0.000408   0.009204
    20  H   -0.025862  -0.003472   0.000024   0.000008  -0.000117   0.000583
    21  H    0.007943   0.004536  -0.000170  -0.000072  -0.000052  -0.000146
    22  H    0.001623   0.000013  -0.000000  -0.000000   0.002137  -0.004804
    23  H   -0.000772  -0.000118   0.000000  -0.000000  -0.006728   0.004027
    24  H   -0.020731   0.001804  -0.000272  -0.008093   0.000000  -0.000000
    25  H    0.376637   0.000036  -0.000005  -0.000152   0.000000   0.000016
    26  H    0.419173  -0.000202   0.000002  -0.000099  -0.000000   0.000000
    27  H    0.422058  -0.000059   0.000004  -0.000071   0.000000   0.000000
              19         20         21         22         23         24
     1  C    0.012743   0.011253   0.014680  -0.079510  -0.055763  -0.000014
     2  N   -0.140537   0.009638   0.019330   0.006708   0.011122   0.000101
     3  C    0.534714  -0.077612  -0.159993   0.024744   0.013410  -0.005034
     4  C   -0.112030   0.005399   0.021312   0.000424   0.008089   0.008342
     5  O    0.005042  -0.000758   0.002208   0.000063  -0.000123   0.000083
     6  C   -0.036543   0.336836   0.447293  -0.119656  -0.145337  -0.002281
     7  C   -0.093868   0.023603  -0.035865   0.486902   0.492806   0.000078
     8  H   -0.001929  -0.000197  -0.000193  -0.000177  -0.000194  -0.000000
     9  N    0.030643  -0.005511   0.007471   0.000150  -0.000148  -0.031797
    10  C   -0.048449   0.036510  -0.016987  -0.003912   0.002032   0.311723
    11  C    0.018844   0.007090  -0.002928   0.000930   0.000300   0.006789
    12  O    0.000243  -0.003269   0.000973   0.000002  -0.000034  -0.002776
    13  C    0.014131  -0.025862   0.007943   0.001623  -0.000772  -0.020731
    14  O   -0.000106  -0.003472   0.004536   0.000013  -0.000118   0.001804
    15  H   -0.000002   0.000024  -0.000170  -0.000000   0.000000  -0.000272
    16  H   -0.000191   0.000008  -0.000072  -0.000000  -0.000000  -0.008093
    17  H   -0.000408  -0.000117  -0.000052   0.002137  -0.006728   0.000000
    18  H    0.009204   0.000583  -0.000146  -0.004804   0.004027  -0.000000
    19  H    0.615630  -0.003659   0.004661   0.000850  -0.000117   0.000006
    20  H   -0.003659   0.506175  -0.035270  -0.006440   0.002792   0.000044
    21  H    0.004661  -0.035270   0.503277   0.003161  -0.009042   0.000007
    22  H    0.000850  -0.006440   0.003161   0.518097  -0.033449   0.000000
    23  H   -0.000117   0.002792  -0.009042  -0.033449   0.505248   0.000000
    24  H    0.000006   0.000044   0.000007   0.000000   0.000000   0.513585
    25  H    0.000984   0.001463  -0.000015   0.000006  -0.000001   0.004100
    26  H    0.000197  -0.000017   0.000003   0.000000  -0.000000  -0.004052
    27  H   -0.000247   0.000038  -0.000004  -0.000000   0.000000  -0.002640
              25         26         27
     1  C    0.002062   0.000050   0.000290
     2  N   -0.000718  -0.000152   0.000059
     3  C    0.029149   0.001859  -0.000489
     4  C   -0.013284   0.001720  -0.002695
     5  O    0.000143   0.000026   0.000005
     6  C   -0.016246  -0.000466   0.001007
     7  C    0.000511  -0.000445  -0.000521
     8  H    0.000001  -0.000000   0.000000
     9  N   -0.002369   0.014772   0.007052
    10  C   -0.071498  -0.096105  -0.102886
    11  C    0.029255  -0.001112   0.012140
    12  O   -0.005460   0.000452   0.001779
    13  C    0.376637   0.419173   0.422058
    14  O    0.000036  -0.000202  -0.000059
    15  H   -0.000005   0.000002   0.000004
    16  H   -0.000152  -0.000099  -0.000071
    17  H    0.000000  -0.000000   0.000000
    18  H    0.000016   0.000000   0.000000
    19  H    0.000984   0.000197  -0.000247
    20  H    0.001463  -0.000017   0.000038
    21  H   -0.000015   0.000003  -0.000004
    22  H    0.000006   0.000000  -0.000000
    23  H   -0.000001  -0.000000   0.000000
    24  H    0.004100  -0.004052  -0.002640
    25  H    0.482676  -0.024446  -0.026805
    26  H   -0.024446   0.478862  -0.024853
    27  H   -0.026805  -0.024853   0.492923
 Mulliken charges:
               1
     1  C   -0.395526
     2  N   -0.360799
     3  C   -0.420438
     4  C    0.594995
     5  O   -0.466010
     6  C   -0.240035
     7  C   -0.433430
     8  H    0.388541
     9  N   -0.477375
    10  C   -0.291091
    11  C    0.289101
    12  O   -0.372351
    13  C   -0.579371
    14  O   -0.522244
    15  H    0.513419
    16  H    0.432756
    17  H    0.192150
    18  H    0.175027
    19  H    0.190194
    20  H    0.220728
    21  H    0.223883
    22  H    0.202138
    23  H    0.211999
    24  H    0.231026
    25  H    0.233962
    26  H    0.234833
    27  H    0.223917
 Sum of Mulliken charges =  -0.00000
 Mulliken charges with hydrogens summed into heavy atoms:
               1
     1  C   -0.028349
     2  N    0.027742
     3  C   -0.230244
     4  C    0.594995
     5  O   -0.466010
     6  C    0.204577
     7  C   -0.019293
     9  N   -0.044619
    10  C   -0.060064
    11  C    0.289101
    12  O   -0.372351
    13  C    0.113341
    14  O   -0.008825
 APT charges:
               1
     1  C    0.383757
     2  N   -0.534785
     3  C    0.242452
     4  C    1.106510
     5  O   -0.834599
     6  C    0.054572
     7  C    0.106803
     8  H    0.153218
     9  N   -0.722252
    10  C    0.363786
    11  C    1.008740
    12  O   -0.728093
    13  C    0.015505
    14  O   -0.674855
    15  H    0.285296
    16  H    0.152919
    17  H   -0.046556
    18  H   -0.117471
    19  H   -0.104553
    20  H   -0.017826
    21  H   -0.016258
    22  H   -0.037135
    23  H   -0.040463
    24  H   -0.015229
    25  H    0.004287
    26  H    0.008566
    27  H    0.003665
 Sum of APT charges =   0.00000
 APT charges with hydrogens summed into heavy atoms:
               1
     1  C    0.219730
     2  N   -0.381567
     3  C    0.137899
     4  C    1.106510
     5  O   -0.834599
     6  C    0.020488
     7  C    0.029205
     9  N   -0.569334
    10  C    0.348556
    11  C    1.008740
    12  O   -0.728093
    13  C    0.032023
    14  O   -0.389559
 Electronic spatial extent (au):  <R**2>=           2571.1660
 Charge=              0.0000 electrons
 Dipole moment (field-independent basis, Debye):
    X=              1.8277    Y=             -1.4321    Z=              1.6720  Tot=              2.8613
 Quadrupole moment (field-independent basis, Debye-Ang):
   XX=            -74.1369   YY=            -88.6264   ZZ=            -75.8490
   XY=             10.6159   XZ=             -6.3461   YZ=              8.3037
 Traceless Quadrupole moment (field-independent basis, Debye-Ang):
   XX=              5.4005   YY=             -9.0889   ZZ=              3.6885
   XY=             10.6159   XZ=             -6.3461   YZ=              8.3037
 Octapole moment (field-independent basis, Debye-Ang**2):
  XXX=              9.3780  YYY=             -5.4935  ZZZ=            -15.8729  XYY=              6.7122
  XXY=             16.4301  XXZ=             -1.9054  XZZ=             20.5333  YZZ=            -11.6331
  YYZ=              2.0549  XYZ=              0.7621
 Hexadecapole moment (field-independent basis, Debye-Ang**3):
 XXXX=          -1958.3823 YYYY=           -919.7773 ZZZZ=           -447.3915 XXXY=             19.0204
 XXXZ=            -50.5758 YYYX=             45.6578 YYYZ=             22.1088 ZZZX=            -38.8287
 ZZZY=             27.8578 XXYY=           -495.3111 XXZZ=           -393.7468 YYZZ=           -216.9330
 XXYZ=             42.9677 YYXZ=            -31.9320 ZZXY=            -25.4082
 N-N= 8.616754290058D+02 E-N=-3.234778260269D+03  KE= 6.423986067114D+02
  Exact polarizability: 126.949  -2.658 116.732   3.720  -4.635 104.258
 Approx polarizability: 161.268 -12.220 170.304   9.573 -15.722 153.350
 Calling FoFJK, ICntrl=    100127 FMM=F ISym2X=0 I1Cent= 0 IOpClX= 0 NMat=1 NMatS=1 NMatT=0.
 Full mass-weighted force constant matrix:
 Low frequencies ---   -9.1754   -0.0009   -0.0006    0.0003    6.8884   10.1787
 Low frequencies ---   42.2693   45.4486   56.7333
 Diagonal vibrational polarizability:
       52.9491947      17.6176876      43.4409955
 Harmonic frequencies (cm**-1), IR intensities (KM/Mole), Raman scattering
 activities (A**4/AMU), depolarization ratios for plane and unpolarized
 incident light, reduced masses (AMU), force constants (mDyne/A),
 and normal coordinates:
                      1                      2                      3
                      A                      A                      A
 Frequencies --     42.0343                45.3757                56.7199
 Red. masses --      3.5394                 4.2919                 9.3980
 Frc consts  --      0.0037                 0.0052                 0.0178
 IR Inten    --      0.6062                 2.1690                 1.9639
  Atom  AN      X      Y      Z        X      Y      Z        X      Y      Z
     1   6     0.02  -0.01   0.16     0.04  -0.07  -0.01     0.01   0.01  -0.02
     2   7    -0.02   0.02   0.21    -0.01  -0.02   0.08     0.00   0.03   0.05
     3   6     0.02  -0.03   0.00     0.01  -0.01   0.02     0.01  -0.00  -0.03
     4   6     0.01  -0.04  -0.06    -0.03   0.03   0.05     0.01   0.01   0.01
     5   8     0.02  -0.11  -0.19    -0.09   0.08   0.19     0.02   0.03   0.03
     6   6    -0.07   0.01  -0.13     0.04   0.02  -0.05    -0.02   0.04  -0.14
     7   6    -0.09   0.06  -0.14     0.02   0.03  -0.21    -0.03   0.05  -0.15
     8   1     0.04  -0.02   0.36    -0.01  -0.07   0.17     0.02   0.00   0.13
     9   7    -0.01   0.01   0.02    -0.00  -0.01  -0.13     0.01  -0.00   0.01
    10   6    -0.00   0.01   0.04     0.02   0.04  -0.08    -0.00  -0.01   0.02
    11   6     0.03   0.03   0.03    -0.03  -0.06   0.02     0.03  -0.02   0.05
    12   8    -0.01   0.02   0.02    -0.13  -0.06   0.12     0.47   0.13   0.12
    13   6    -0.03  -0.02   0.02     0.08   0.19  -0.02    -0.01  -0.00   0.02
    14   8     0.09   0.06   0.04     0.07  -0.15  -0.01    -0.46  -0.23   0.01
    15   1     0.10   0.07   0.03     0.03  -0.21   0.06    -0.38  -0.22   0.04
    16   1     0.01  -0.04  -0.06    -0.04   0.03  -0.09     0.02   0.00   0.03
    17   1    -0.06   0.06   0.32     0.01  -0.04   0.05    -0.02   0.05   0.03
    18   1     0.20  -0.15   0.16     0.13  -0.20  -0.02     0.06  -0.08  -0.02
    19   1     0.17  -0.10  -0.03     0.05  -0.06   0.01     0.06  -0.08  -0.04
    20   1    -0.07  -0.06  -0.20    -0.02  -0.02  -0.00    -0.01  -0.01  -0.19
    21   1    -0.09   0.08  -0.13     0.14   0.07  -0.01    -0.05   0.11  -0.13
    22   1    -0.08  -0.07  -0.33    -0.00  -0.10  -0.41    -0.02  -0.01  -0.24
    23   1    -0.21   0.29  -0.17     0.03   0.26  -0.28    -0.07   0.15  -0.17
    24   1    -0.02   0.03   0.07     0.03   0.05  -0.19     0.00  -0.02   0.03
    25   1     0.04  -0.11  -0.03     0.08   0.19   0.09    -0.00  -0.01   0.02
    26   1     0.01   0.06   0.06     0.10   0.22  -0.00    -0.01   0.01   0.03
    27   1    -0.14  -0.05   0.02     0.12   0.25  -0.10    -0.03  -0.00   0.01
                      4                      5                      6
                      A                      A                      A
 Frequencies --     75.2202                96.2500               124.7240
 Red. masses --      5.6407                 2.2815                 3.3343
 Frc consts  --      0.0188                 0.0125                 0.0306
 IR Inten    --      0.1352                 0.8388                 0.8187
  Atom  AN      X      Y      Z        X      Y      Z        X      Y      Z
     1   6    -0.08   0.05   0.05    -0.05   0.02  -0.05    -0.13   0.07  -0.08
     2   7    -0.07   0.04   0.02    -0.02   0.01  -0.00    -0.01   0.02  -0.03
     3   6    -0.07   0.02   0.00    -0.04   0.02   0.09    -0.02  -0.09  -0.03
     4   6    -0.06   0.01   0.01    -0.01  -0.03   0.01     0.01  -0.08   0.03
     5   8    -0.07   0.08   0.15    -0.01  -0.05  -0.04    -0.01  -0.07   0.05
     6   6    -0.10   0.03  -0.03     0.00  -0.05   0.23    -0.13  -0.08  -0.10
     7   6    -0.08   0.01   0.09    -0.07   0.05  -0.11    -0.16  -0.02   0.02
     8   1    -0.05   0.05   0.01    -0.04   0.02  -0.05     0.05   0.05  -0.05
     9   7    -0.03  -0.09  -0.17    -0.01  -0.02  -0.01     0.00  -0.01   0.05
    10   6    -0.03  -0.04  -0.06     0.01  -0.00  -0.01     0.09   0.05   0.00
    11   6     0.17  -0.02  -0.01     0.04   0.01  -0.02     0.05   0.03   0.01
    12   8     0.25   0.02   0.05     0.08   0.02  -0.04     0.03   0.03   0.01
    13   6    -0.16  -0.07  -0.10     0.03  -0.00  -0.01     0.24   0.10   0.05
    14   8     0.28  -0.05  -0.02     0.02   0.02  -0.02     0.04   0.03   0.01
    15   1     0.42  -0.03   0.02     0.05   0.04  -0.03     0.01   0.02   0.01
    16   1    -0.03  -0.07  -0.13    -0.02  -0.05  -0.06    -0.06   0.04   0.08
    17   1    -0.08   0.04   0.04    -0.05   0.06  -0.06    -0.09   0.15  -0.17
    18   1    -0.10   0.09   0.05    -0.05  -0.03  -0.06    -0.24   0.09  -0.09
    19   1    -0.06  -0.01  -0.00    -0.09   0.12   0.10    -0.02  -0.16  -0.04
    20   1    -0.04   0.04  -0.11    -0.18  -0.08   0.49    -0.09  -0.12  -0.20
    21   1    -0.19   0.05  -0.06     0.31  -0.17   0.31    -0.25  -0.05  -0.13
    22   1    -0.04   0.07   0.18    -0.25  -0.09  -0.30    -0.17   0.06   0.15
    23   1    -0.12  -0.09   0.14     0.04   0.31  -0.22    -0.19  -0.16   0.07
    24   1    -0.08   0.02   0.05     0.00   0.02  -0.02     0.08   0.09  -0.11
    25   1    -0.06  -0.20  -0.21     0.00   0.04   0.01     0.17   0.19   0.16
    26   1    -0.13   0.06   0.02     0.02  -0.04  -0.04     0.23   0.03  -0.05
    27   1    -0.37  -0.10  -0.12     0.09   0.00  -0.00     0.39   0.14   0.05
                      7                      8                      9
                      A                      A                      A
 Frequencies --    177.1288               204.6901               234.6172
 Red. masses --      2.6639                 1.6362                 1.9005
 Frc consts  --      0.0492                 0.0404                 0.0616
 IR Inten    --      1.4149                 1.2131                 0.5197
  Atom  AN      X      Y      Z        X      Y      Z        X      Y      Z
     1   6     0.07   0.05   0.15     0.02  -0.05   0.07     0.01  -0.02   0.04
     2   7     0.06  -0.03  -0.14    -0.08  -0.01  -0.05    -0.06  -0.01  -0.07
     3   6     0.05  -0.06  -0.13    -0.07   0.05  -0.04    -0.06   0.04  -0.04
     4   6     0.04  -0.01  -0.04    -0.04   0.03  -0.01    -0.04   0.03  -0.01
     5   8    -0.00   0.05   0.10     0.02   0.05  -0.03     0.01   0.05  -0.03
     6   6    -0.01  -0.15   0.01    -0.01   0.05  -0.02    -0.01   0.03   0.01
     7   6    -0.10  -0.01  -0.01     0.02   0.00  -0.01     0.00   0.01  -0.00
     8   1     0.13   0.05  -0.24    -0.11  -0.03  -0.04    -0.09  -0.01  -0.11
     9   7     0.03   0.02  -0.01    -0.04  -0.02   0.03    -0.05   0.02   0.08
    10   6    -0.00   0.02   0.01    -0.02  -0.04   0.01     0.01   0.01  -0.01
    11   6    -0.01   0.02   0.01     0.01  -0.03   0.00     0.00   0.01  -0.00
    12   8    -0.01   0.02  -0.00     0.05  -0.02  -0.01    -0.01   0.02   0.05
    13   6    -0.07   0.02   0.00     0.06  -0.00   0.03     0.15  -0.10  -0.01
    14   8    -0.02   0.04   0.01     0.04  -0.01   0.01     0.02  -0.05  -0.02
    15   1    -0.03   0.04   0.00     0.09   0.02   0.00     0.01  -0.09   0.02
    16   1     0.02   0.10   0.12    -0.02  -0.02   0.06    -0.05   0.06   0.15
    17   1    -0.05   0.04   0.43    -0.03  -0.12   0.20    -0.03  -0.08   0.14
    18   1     0.37   0.16   0.20     0.17  -0.01   0.09     0.13   0.03   0.06
    19   1     0.01  -0.02  -0.12    -0.10   0.06  -0.04    -0.07   0.07  -0.04
    20   1    -0.11  -0.17   0.14     0.01   0.10   0.00    -0.02   0.07   0.07
    21   1     0.09  -0.31   0.02    -0.00   0.05  -0.02     0.03  -0.01   0.02
    22   1    -0.19  -0.11  -0.15     0.07  -0.03  -0.06     0.01  -0.03  -0.05
    23   1    -0.20   0.20  -0.04    -0.01   0.05  -0.01    -0.01   0.06  -0.02
    24   1     0.01  -0.00   0.04    -0.02  -0.03  -0.03    -0.02   0.05  -0.05
    25   1    -0.09   0.05  -0.03    -0.24   0.38   0.18     0.46  -0.49  -0.06
    26   1    -0.10  -0.01   0.04    -0.10  -0.41  -0.19     0.37   0.29   0.03
    27   1    -0.07   0.02  -0.00     0.57   0.04   0.12    -0.26  -0.19  -0.02
                     10                     11                     12
                      A                      A                      A
 Frequencies --    261.6407               328.2708               346.9413
 Red. masses --      2.9632                 5.2965                 3.1147
 Frc consts  --      0.1195                 0.3363                 0.2209
 IR Inten    --      1.7742                 8.9254                 2.0946
  Atom  AN      X      Y      Z        X      Y      Z        X      Y      Z
     1   6     0.01   0.04  -0.02    -0.12  -0.17  -0.02    -0.03   0.01  -0.06
     2   7     0.06   0.01   0.02    -0.15  -0.08   0.11     0.06   0.00   0.15
     3   6     0.05  -0.03   0.02    -0.07   0.01  -0.05     0.09  -0.02  -0.10
     4   6     0.00   0.01   0.02     0.09   0.03  -0.06    -0.03   0.08  -0.15
     5   8    -0.07  -0.05  -0.01     0.29   0.18   0.01    -0.03   0.15  -0.03
     6   6     0.01  -0.03   0.00    -0.09  -0.07   0.05     0.02  -0.11   0.02
     7   6    -0.01   0.01   0.00    -0.07  -0.13   0.00    -0.02  -0.03   0.02
     8   1     0.09   0.03   0.01    -0.18  -0.19   0.31     0.13  -0.03   0.28
     9   7    -0.01   0.13   0.09     0.11  -0.00  -0.04    -0.06   0.04   0.01
    10   6     0.00   0.08  -0.04     0.14   0.09  -0.00    -0.15  -0.07  -0.00
    11   6    -0.00   0.06  -0.03     0.07   0.09   0.01    -0.08  -0.05  -0.01
    12   8    -0.05   0.10   0.13    -0.08   0.06   0.06     0.06  -0.01  -0.02
    13   6    -0.02  -0.15  -0.13    -0.05  -0.01  -0.09     0.05  -0.02   0.08
    14   8     0.05  -0.12  -0.08    -0.04   0.01  -0.01     0.04   0.00   0.01
    15   1     0.03  -0.22   0.05    -0.21  -0.06   0.00     0.24   0.07   0.02
    16   1    -0.04   0.17   0.12     0.06   0.05   0.02     0.02   0.14   0.27
    17   1     0.02   0.08  -0.06    -0.08  -0.16  -0.11     0.05   0.10  -0.24
    18   1    -0.05   0.02  -0.03    -0.21  -0.24  -0.04    -0.24  -0.08  -0.09
    19   1     0.06  -0.03   0.02     0.02   0.08  -0.06     0.30   0.06  -0.12
    20   1    -0.00  -0.07  -0.01    -0.12  -0.02   0.14    -0.06  -0.10   0.16
    21   1     0.01  -0.03   0.00    -0.02  -0.17   0.06     0.12  -0.29   0.03
    22   1    -0.04   0.02   0.02    -0.06  -0.13  -0.00    -0.08  -0.00   0.07
    23   1    -0.01  -0.01   0.01    -0.02  -0.14  -0.01     0.01  -0.09   0.03
    24   1     0.01   0.06   0.03     0.12   0.10   0.08    -0.12  -0.12  -0.06
    25   1    -0.23   0.11  -0.22    -0.11   0.06  -0.29     0.08  -0.05   0.28
    26   1    -0.16  -0.53  -0.35    -0.15  -0.13  -0.02     0.14   0.05  -0.05
    27   1     0.30  -0.26   0.11    -0.07  -0.06  -0.03     0.14   0.01   0.06
                     13                     14                     15
                      A                      A                      A
 Frequencies --    349.0852               458.8467               496.0331
 Red. masses --      4.2044                 6.0118                 3.0763
 Frc consts  --      0.3019                 0.7457                 0.4460
 IR Inten    --      2.6272                 1.7970                36.4478
  Atom  AN      X      Y      Z        X      Y      Z        X      Y      Z
     1   6    -0.02  -0.03   0.01     0.03   0.02   0.01    -0.02  -0.04   0.01
     2   7    -0.02  -0.02  -0.01     0.05  -0.01  -0.03     0.05  -0.09  -0.04
     3   6    -0.02  -0.01   0.02    -0.00  -0.04   0.09     0.03   0.00   0.12
     4   6     0.03   0.02   0.08     0.02  -0.10   0.08     0.03   0.11   0.09
     5   8     0.08  -0.02  -0.02     0.23  -0.02   0.03     0.03   0.04  -0.04
     6   6    -0.02  -0.01  -0.00     0.01   0.01  -0.01    -0.06  -0.01  -0.00
     7   6    -0.02  -0.02  -0.00     0.01   0.01  -0.01    -0.07  -0.06  -0.02
     8   1    -0.04  -0.03  -0.00     0.04   0.04  -0.13    -0.05   0.00  -0.33
     9   7    -0.00   0.14   0.28    -0.05  -0.19  -0.08     0.05   0.14   0.01
    10   6    -0.01  -0.02  -0.03    -0.20  -0.12  -0.03    -0.06  -0.03  -0.10
    11   6    -0.03  -0.05  -0.11    -0.20   0.11  -0.10    -0.11  -0.11   0.03
    12   8     0.06  -0.02  -0.09    -0.04   0.26   0.15     0.06  -0.05   0.06
    13   6    -0.13   0.19   0.03     0.01  -0.01   0.08     0.03   0.00  -0.13
    14   8     0.09  -0.14  -0.15     0.02   0.03  -0.17    -0.01   0.08   0.10
    15   1     0.20  -0.18  -0.03     0.45   0.08  -0.02     0.28   0.30  -0.05
    16   1    -0.02   0.14   0.26    -0.05  -0.21  -0.10     0.13  -0.16  -0.47
    17   1    -0.03  -0.03   0.04     0.01   0.03   0.05    -0.03   0.02   0.04
    18   1     0.01  -0.02   0.01     0.08   0.05   0.02     0.00  -0.03   0.01
    19   1    -0.06  -0.04   0.02    -0.07  -0.10   0.10    -0.04  -0.02   0.12
    20   1    -0.02  -0.02  -0.02     0.04  -0.03  -0.11    -0.01  -0.10  -0.17
    21   1    -0.04   0.01  -0.01    -0.06   0.12  -0.02    -0.18   0.13  -0.02
    22   1    -0.01  -0.03  -0.01     0.01   0.01  -0.01    -0.06  -0.08  -0.05
    23   1    -0.03  -0.01  -0.00    -0.01   0.02  -0.01    -0.08  -0.01  -0.03
    24   1     0.05  -0.12  -0.06    -0.16  -0.17  -0.07     0.03  -0.17  -0.20
    25   1    -0.12   0.17   0.05     0.04  -0.02   0.38     0.08  -0.05  -0.08
    26   1    -0.17   0.33   0.33     0.11   0.10  -0.01     0.08   0.03  -0.21
    27   1    -0.29   0.35  -0.24     0.13   0.11  -0.03     0.04  -0.03  -0.09
                     16                     17                     18
                      A                      A                      A
 Frequencies --    524.8738               564.7821               574.2832
 Red. masses --      3.0796                 2.5233                 1.6083
 Frc consts  --      0.4999                 0.4742                 0.3125
 IR Inten    --      7.6122                27.7781                48.1457
  Atom  AN      X      Y      Z        X      Y      Z        X      Y      Z
     1   6    -0.03  -0.04   0.01     0.01  -0.03  -0.02    -0.04  -0.04   0.01
     2   7     0.06  -0.10  -0.02    -0.12   0.09  -0.02    -0.01  -0.05  -0.00
     3   6     0.04   0.02   0.09    -0.03   0.03  -0.09     0.01   0.04   0.04
     4   6     0.00   0.11   0.02     0.10   0.00  -0.01     0.08  -0.01  -0.07
     5   8    -0.04   0.06  -0.04    -0.09  -0.08   0.05    -0.05  -0.04   0.01
     6   6    -0.05   0.00   0.00    -0.02  -0.00   0.00    -0.04   0.07   0.03
     7   6    -0.07  -0.04  -0.01     0.01  -0.02   0.00    -0.02   0.01  -0.00
     8   1    -0.04   0.03  -0.39    -0.06  -0.11   0.46    -0.08   0.02  -0.23
     9   7     0.05   0.05  -0.09     0.16   0.10  -0.02     0.09   0.01  -0.07
    10   6    -0.02   0.05   0.13     0.01  -0.04   0.02     0.02  -0.03  -0.00
    11   6     0.05   0.08  -0.00    -0.09  -0.00  -0.02    -0.04  -0.02  -0.02
    12   8    -0.02   0.02  -0.12     0.00   0.04   0.02     0.01   0.01   0.02
    13   6     0.00  -0.05   0.20     0.01  -0.04   0.07    -0.00  -0.01   0.03
    14   8     0.03  -0.11  -0.07    -0.00  -0.00  -0.04    -0.01   0.02  -0.01
    15   1    -0.12  -0.31   0.14     0.35   0.09   0.02     0.15   0.08  -0.02
    16   1     0.15  -0.15  -0.38     0.26  -0.18  -0.47     0.04   0.45   0.73
    17   1    -0.03   0.04   0.00    -0.02  -0.11   0.05    -0.02  -0.02  -0.02
    18   1    -0.04  -0.03   0.01     0.08  -0.02  -0.01    -0.07  -0.05   0.01
    19   1     0.03   0.03   0.10    -0.08  -0.00  -0.09     0.02   0.14   0.04
    20   1     0.00  -0.08  -0.16    -0.07   0.08   0.15     0.01   0.04  -0.09
    21   1    -0.17   0.13  -0.02     0.09  -0.15   0.02    -0.13   0.17   0.02
    22   1    -0.06  -0.07  -0.06     0.02   0.02   0.06     0.02  -0.04  -0.07
    23   1    -0.07   0.02  -0.03     0.03  -0.10   0.02     0.01   0.07  -0.03
    24   1    -0.04   0.08   0.27     0.10  -0.19   0.06     0.07  -0.12  -0.02
    25   1     0.03  -0.08   0.24     0.04  -0.07   0.13    -0.01  -0.00   0.04
    26   1     0.06  -0.04   0.07     0.05   0.01   0.06    -0.01   0.00   0.06
    27   1     0.06  -0.09   0.28     0.02  -0.02   0.06    -0.01   0.01  -0.01
                     19                     20                     21
                      A                      A                      A
 Frequencies --    618.8472               630.8148               671.1891
 Red. masses --      2.2131                 1.9711                 1.9730
 Frc consts  --      0.4994                 0.4621                 0.5237
 IR Inten    --     65.5378                24.0581                79.3000
  Atom  AN      X      Y      Z        X      Y      Z        X      Y      Z
     1   6     0.10   0.01  -0.05    -0.10   0.00   0.06     0.05   0.01  -0.03
     2   7     0.00   0.10  -0.04    -0.03  -0.07   0.02     0.05   0.00   0.02
     3   6    -0.03  -0.01   0.07     0.00  -0.04  -0.06     0.00   0.04   0.02
     4   6    -0.01  -0.01   0.05     0.00  -0.05  -0.01    -0.05   0.04  -0.03
     5   8     0.06  -0.01  -0.01     0.04  -0.02   0.03    -0.06   0.05  -0.03
     6   6    -0.06  -0.03   0.02     0.08   0.02  -0.03    -0.04  -0.01   0.01
     7   6    -0.01  -0.09  -0.03     0.04   0.11   0.04    -0.02  -0.05  -0.02
     8   1     0.02  -0.10   0.39     0.01   0.09  -0.27    -0.00   0.01  -0.06
     9   7    -0.02   0.01  -0.08    -0.01   0.01  -0.00    -0.03  -0.07   0.05
    10   6    -0.05   0.11   0.02     0.01   0.08   0.02     0.14  -0.03   0.03
    11   6    -0.05   0.02   0.05    -0.05   0.03   0.04     0.08   0.00  -0.03
    12   8     0.01  -0.02  -0.11    -0.01   0.00  -0.08    -0.04  -0.01   0.05
    13   6     0.00   0.01  -0.02     0.00   0.01  -0.02     0.01  -0.00   0.02
    14   8    -0.01  -0.07   0.07    -0.03  -0.06   0.04    -0.08   0.00  -0.06
    15   1     0.43  -0.03   0.24     0.71   0.08   0.22     0.79   0.33  -0.06
    16   1    -0.13   0.27   0.32    -0.05  -0.03  -0.12     0.01  -0.14  -0.04
    17   1     0.01   0.01   0.15    -0.02  -0.05  -0.14     0.02   0.08   0.04
    18   1     0.31   0.02  -0.03    -0.29   0.01   0.04     0.11  -0.02  -0.02
    19   1    -0.13  -0.03   0.08     0.05  -0.07  -0.07     0.05   0.09   0.02
    20   1    -0.02  -0.04  -0.04     0.04   0.03   0.05    -0.02  -0.02  -0.03
    21   1    -0.07   0.05   0.03     0.14  -0.07  -0.03    -0.05   0.02   0.01
    22   1    -0.04   0.00   0.10     0.07   0.02  -0.09    -0.04  -0.01   0.05
    23   1     0.02  -0.22  -0.00    -0.01   0.24   0.01    -0.01  -0.12  -0.01
    24   1    -0.05   0.10  -0.03     0.02   0.07  -0.02     0.08   0.06   0.02
    25   1     0.05  -0.05  -0.09     0.02  -0.02  -0.13    -0.07   0.08  -0.13
    26   1     0.05  -0.02  -0.17     0.00  -0.03  -0.08    -0.11  -0.06   0.22
    27   1    -0.00  -0.11   0.14    -0.03  -0.08   0.08    -0.07   0.04  -0.06
                     22                     23                     24
                      A                      A                      A
 Frequencies --    700.4057               753.4469               769.4729
 Red. masses --      3.5576                 2.3244                 1.6095
 Frc consts  --      1.0283                 0.7774                 0.5615
 IR Inten    --     25.2252                16.5838                38.2522
  Atom  AN      X      Y      Z        X      Y      Z        X      Y      Z
     1   6    -0.07   0.02   0.03    -0.02  -0.02   0.01    -0.01  -0.02   0.01
     2   7    -0.07  -0.00  -0.03    -0.01   0.01  -0.07     0.01  -0.00  -0.08
     3   6    -0.01  -0.08   0.00     0.02  -0.06   0.04     0.04  -0.03   0.02
     4   6    -0.05   0.20   0.27     0.01  -0.06  -0.07    -0.02   0.04  -0.02
     5   8    -0.01   0.01  -0.13     0.05   0.00   0.03    -0.04   0.04  -0.02
     6   6     0.13  -0.10  -0.09     0.01   0.01   0.04     0.02  -0.01   0.04
     7   6     0.01   0.06   0.03     0.01   0.03   0.05    -0.01   0.02   0.06
     8   1     0.04  -0.07   0.22     0.09  -0.16   0.39     0.11  -0.22   0.49
     9   7     0.04  -0.01  -0.12    -0.03   0.09  -0.01     0.00  -0.06   0.03
    10   6     0.04  -0.01   0.01    -0.09   0.07  -0.01     0.06  -0.06   0.00
    11   6     0.04  -0.04  -0.04     0.17  -0.05  -0.04    -0.07   0.04   0.02
    12   8    -0.00  -0.03   0.05    -0.02  -0.09   0.06     0.00   0.05  -0.03
    13   6    -0.00  -0.02   0.05    -0.03  -0.00   0.05     0.02  -0.00  -0.03
    14   8    -0.02   0.03  -0.05    -0.05   0.03  -0.07     0.02  -0.02   0.04
    15   1     0.06   0.14  -0.15     0.17   0.25  -0.28    -0.03  -0.12   0.17
    16   1     0.01   0.29   0.41    -0.07   0.08  -0.08     0.06  -0.10   0.00
    17   1    -0.04  -0.07  -0.03     0.02  -0.09  -0.07     0.05  -0.08  -0.13
    18   1    -0.13   0.09   0.04    -0.10   0.10   0.01    -0.15   0.13   0.01
    19   1    -0.19  -0.41   0.00    -0.05   0.05   0.05    -0.04   0.06   0.04
    20   1     0.00  -0.11   0.10     0.17  -0.02  -0.22     0.19  -0.06  -0.26
    21   1     0.26  -0.25  -0.06    -0.24   0.17  -0.01    -0.28   0.12  -0.04
    22   1    -0.00   0.04   0.01    -0.09  -0.12  -0.18    -0.15  -0.19  -0.23
    23   1    -0.08   0.08   0.05     0.04   0.29  -0.04     0.01   0.37  -0.05
    24   1     0.05  -0.03   0.03    -0.15   0.13   0.15     0.08  -0.07  -0.08
    25   1    -0.01  -0.00   0.04     0.04  -0.08   0.20    -0.03   0.06  -0.12
    26   1    -0.02  -0.02   0.09     0.09   0.05  -0.15    -0.07  -0.03   0.13
    27   1    -0.01  -0.01   0.03     0.08  -0.05   0.14    -0.04   0.05  -0.12
                     25                     26                     27
                      A                      A                      A
 Frequencies --    811.0390               848.6023               863.0260
 Red. masses --      2.8852                 1.7869                 2.9801
 Frc consts  --      1.1182                 0.7582                 1.3077
 IR Inten    --     27.0335                 9.7000                13.9104
  Atom  AN      X      Y      Z        X      Y      Z        X      Y      Z
     1   6    -0.01  -0.02   0.00    -0.08  -0.01  -0.00     0.02  -0.10   0.00
     2   7    -0.00  -0.00  -0.01    -0.00  -0.08  -0.06     0.13  -0.09  -0.06
     3   6     0.03   0.03  -0.02     0.04  -0.09   0.09     0.11   0.07  -0.12
     4   6     0.05   0.05   0.05    -0.01  -0.02  -0.08     0.01   0.04   0.12
     5   8    -0.02  -0.03  -0.01    -0.00   0.04  -0.00     0.01  -0.06  -0.00
     6   6    -0.01   0.01  -0.01     0.05   0.05   0.00    -0.13   0.19   0.01
     7   6    -0.02  -0.01   0.00    -0.04   0.12  -0.06    -0.10   0.03   0.04
     8   1    -0.03  -0.02   0.01     0.12  -0.20   0.32     0.15  -0.32   0.42
     9   7     0.04  -0.02   0.03     0.00   0.02   0.01    -0.04  -0.07   0.00
    10   6    -0.12  -0.15  -0.06     0.02  -0.02  -0.01    -0.02   0.06   0.03
    11   6     0.21   0.14   0.04     0.00   0.01   0.00    -0.02  -0.03  -0.00
    12   8    -0.08   0.04  -0.05    -0.00   0.01  -0.00     0.01  -0.02   0.01
    13   6    -0.01  -0.00  -0.13     0.01  -0.01   0.00    -0.01   0.03  -0.01
    14   8    -0.05  -0.05   0.09    -0.00  -0.00   0.01     0.00   0.01  -0.03
    15   1     0.18  -0.07   0.25     0.00  -0.02   0.03    -0.01   0.03  -0.07
    16   1     0.16  -0.03   0.12     0.03  -0.01  -0.02    -0.07  -0.05   0.01
    17   1    -0.01  -0.01  -0.01    -0.21   0.06   0.28     0.07   0.06  -0.13
    18   1    -0.03  -0.02   0.00     0.22  -0.05   0.02    -0.13  -0.01  -0.01
    19   1     0.02  -0.01  -0.02    -0.03   0.01   0.09     0.15   0.00  -0.13
    20   1    -0.04   0.04   0.06    -0.13  -0.17   0.05    -0.33   0.24   0.35
    21   1     0.04  -0.06  -0.00     0.24   0.15   0.07     0.15  -0.15   0.06
    22   1     0.01  -0.01   0.00     0.16   0.39   0.33     0.13   0.01  -0.01
    23   1    -0.03  -0.02   0.01    -0.01  -0.39   0.09    -0.13   0.03   0.05
    24   1    -0.18  -0.08   0.28     0.02  -0.03  -0.01    -0.05   0.11  -0.03
    25   1     0.02  -0.01   0.42    -0.02   0.02   0.01     0.03  -0.02  -0.10
    26   1     0.16   0.23  -0.17    -0.02  -0.01   0.07     0.01  -0.02  -0.12
    27   1     0.22   0.26  -0.40    -0.00   0.03  -0.05    -0.02  -0.08   0.13
                     28                     29                     30
                      A                      A                      A
 Frequencies --    920.0906               942.9272               959.9956
 Red. masses --      2.9337                 2.1535                 1.9851
 Frc consts  --      1.4633                 1.1281                 1.0779
 IR Inten    --      2.2490                 5.3083                15.7830
  Atom  AN      X      Y      Z        X      Y      Z        X      Y      Z
     1   6     0.20  -0.06  -0.07    -0.00   0.03   0.07    -0.01  -0.03   0.09
     2   7    -0.02  -0.04   0.02     0.07   0.03  -0.02    -0.02   0.07  -0.06
     3   6    -0.03  -0.03   0.04    -0.08  -0.10   0.04     0.03   0.08   0.13
     4   6    -0.02  -0.01  -0.01    -0.05  -0.04  -0.04     0.04   0.00  -0.06
     5   8     0.01   0.02  -0.00     0.02   0.03  -0.00    -0.03   0.01   0.01
     6   6    -0.19  -0.09  -0.01    -0.09   0.07  -0.03    -0.00  -0.07  -0.10
     7   6     0.06   0.26   0.06     0.06  -0.09  -0.01     0.02  -0.04  -0.03
     8   1    -0.19  -0.07  -0.11     0.18   0.04   0.06    -0.07   0.00   0.05
     9   7     0.00   0.03  -0.01    -0.02   0.10  -0.04     0.01  -0.06   0.04
    10   6     0.01  -0.02  -0.02     0.04  -0.05  -0.08    -0.03   0.02   0.06
    11   6     0.01   0.01  -0.00     0.02   0.02  -0.01    -0.01  -0.01   0.01
    12   8    -0.00   0.01  -0.00    -0.01   0.02  -0.01     0.01  -0.01   0.01
    13   6     0.00  -0.02   0.01     0.02  -0.07   0.06    -0.01   0.05  -0.05
    14   8    -0.00  -0.00   0.01    -0.00  -0.01   0.04     0.00   0.01  -0.04
    15   1     0.00  -0.01   0.02     0.01  -0.01   0.06    -0.01  -0.00  -0.03
    16   1    -0.00   0.04  -0.01    -0.08   0.12  -0.06     0.10  -0.10   0.06
    17   1     0.30  -0.40  -0.26     0.11   0.07  -0.17     0.13  -0.13  -0.23
    18   1     0.04  -0.08  -0.09    -0.25   0.20   0.06    -0.35   0.13   0.06
    19   1    -0.02  -0.10   0.03    -0.11  -0.25   0.04    -0.01   0.18   0.13
    20   1    -0.34  -0.28   0.01    -0.22   0.20   0.29    -0.25  -0.29   0.06
    21   1    -0.13  -0.19  -0.01     0.25  -0.00   0.07     0.33  -0.01   0.01
    22   1     0.03   0.30   0.11     0.34  -0.19  -0.18     0.35  -0.05  -0.07
    23   1    -0.08   0.21   0.13    -0.12   0.05   0.00    -0.34  -0.06   0.09
    24   1     0.02  -0.03  -0.00     0.06  -0.08  -0.09    -0.05   0.05   0.08
    25   1    -0.02   0.01   0.04    -0.08   0.05   0.10     0.06  -0.03  -0.09
    26   1    -0.01  -0.00   0.07    -0.08  -0.05   0.30     0.05   0.03  -0.22
    27   1     0.00   0.03  -0.05    -0.02   0.08  -0.15     0.02  -0.05   0.10
                     31                     32                     33
                      A                      A                      A
 Frequencies --    988.5169              1010.5266              1065.0591
 Red. masses --      2.6718                 2.4576                 1.6327
 Frc consts  --      1.5382                 1.4786                 1.0912
[...]
 0015250,-0.10263755,0.19653394,-0.00018216,-0.00192494,-0.00152358,0.0
 0198910,0.00087272,-0.00642568,-0.01675930,0.01987884,-0.01177417,0.00
 092649,0.00284054,-0.00016879,-0.00053729,-0.00085345,-0.00024379,-0.0
 6815739,0.09569292,-0.11745251,0.00682430,-0.01113558,0.00644886,0.000
 43082,0.00174043,0.00003056,-0.00004587,-0.00100959,-0.00008001,-0.000
 44122,-0.00012373,-0.00086844,-0.00093258,-0.00095219,-0.00014937,0.00
 042502,0.00077801,0.00009017,-0.00022273,-0.00054723,-0.00008603,0.000
 23278,-0.00000126,-0.00004665,-0.00005685,0.00000260,0.00004421,-0.000
 05546,-0.00013023,0.00000400,-0.00008600,-0.00002985,0.00046110,0.0000
 8728,0.00004006,0.00023708,-0.00007299,0.00005566,0.00185826,0.0747199
 0,-0.10257217,0.12717056,0.00026554,-0.00003309,-0.00010881,0.00091918
 ,-0.00022664,-0.00073999,-0.00943370,0.00039653,0.00179847,-0.00036717
 ,-0.00140011,-0.00126166,0.00048403,0.00022066,0.00085376,-0.30341995,
 -0.05740838,0.00098943,-0.00169068,0.00093264,-0.00058210,0.00009953,-
 0.00013869,0.00010308,0.00036793,0.00068404,0.00000846,-0.00034050,-0.
 00005819,0.00017803,-0.00182449,0.00062859,-0.00003129,0.00054697,-0.0
 0002291,0.00007295,-0.00014466,-0.00014469,-0.00015810,0.00078313,-0.0
 0142114,-0.00030317,0.00018224,0.00033861,-0.00001798,-0.00005512,0.00
 005575,0.00009699,-0.00008104,-0.00012145,0.00012852,0.00009275,0.0001
 1966,-0.00012002,0.00047705,-0.00034813,0.00206417,-0.01515844,-0.0034
 0272,0.00038654,0.32543934,-0.00043946,-0.00242786,-0.00206320,-0.0000
 5607,0.00051232,0.00028458,-0.00015487,-0.00074414,-0.00071003,0.00028
 756,0.00097206,-0.00052685,0.00028902,-0.00014236,0.00016927,-0.056918
 49,-0.06084703,0.00411014,-0.02697596,-0.00901200,-0.00141990,0.000233
 04,-0.00001364,0.00007692,-0.00020875,-0.00005163,0.00042569,0.0002704
 8,0.00003372,-0.00001103,0.00137962,-0.00072744,0.00005250,-0.00046017
 ,0.00012138,-0.00018320,0.00019620,0.00018894,0.00001787,-0.00064440,-
 0.00011029,0.00008711,-0.00016160,-0.00032363,0.00004374,-0.00003914,0
 .00000644,-0.00000827,-0.00025785,-0.00028621,0.00047694,-0.00003895,-
 0.00004627,0.00026884,0.00040156,0.00046751,-0.00080182,0.02324441,0.0
 0614287,-0.00137747,0.06173845,0.06830087,-0.00030803,-0.00050627,-0.0
 0169158,-0.00054285,-0.00049125,0.00107950,0.03330767,0.00482421,-0.00
 347328,0.00222062,-0.00002546,0.00202701,-0.00055432,0.00038473,-0.000
 26812,-0.00129373,0.00441212,-0.04785136,-0.01238881,-0.00495137,-0.00
 070833,-0.00046363,0.00010426,0.00002040,-0.00044501,0.00002442,0.0000
 6101,0.00022048,-0.00010602,0.00008398,0.00004112,-0.00001039,0.000383
 83,0.00003957,0.00000256,-0.00030364,-0.00001796,-0.00008954,0.0000325
 8,-0.00002224,-0.00012342,-0.00014786,0.00000910,0.00022844,0.00009596
 ,0.00003451,-0.00011442,-0.00007501,-0.00003570,0.00000244,0.00018073,
 -0.00008655,-0.00004487,0.00016120,0.00212966,0.00132778,-0.00568255,-
 0.01727014,-0.00467255,0.00099301,-0.00394263,0.00178302,0.05449128,0.
 00731740,0.00005353,0.01091799,-0.00016218,-0.00115454,0.00164134,-0.0
 0046347,-0.00017763,0.00047363,0.00005663,0.00026494,0.00006292,0.0000
 0016,-0.00002632,-0.00011701,-0.00242794,-0.00002522,-0.00078756,-0.16
 802961,0.00467309,-0.13268462,0.00050124,0.00031128,0.00068873,0.00002
 423,-0.00008234,-0.00001604,-0.00002974,0.00005188,-0.00002689,-0.0001
 2307,0.00012325,-0.00016169,0.00002754,-0.00004464,0.00016398,0.000016
 00,0.00001314,0.00001859,0.00007617,-0.00010466,0.00002006,0.00000725,
 0.00003245,-0.00002645,-0.00000528,-0.00000430,0.00001251,0.00007856,-
 0.00047070,0.00008790,0.00147727,0.00016679,0.00011058,-0.00003098,-0.
 00000401,0.00005707,0.00136628,-0.00017225,0.00030971,0.00052570,-0.00
 103245,-0.00049171,0.17860723,0.01349219,0.00106172,0.01226846,-0.0012
 8741,-0.00276288,0.00268655,-0.00091427,-0.00260306,-0.00125063,0.0008
 4322,0.00066593,-0.00006354,-0.00041347,-0.00003515,-0.00030243,-0.020
 56153,-0.00099549,-0.02088163,0.00487609,-0.04739152,0.00346895,0.0000
 3488,0.00085780,0.00048991,0.00003288,-0.00020060,-0.00003378,-0.00014
 826,0.00013812,-0.00008712,-0.00036262,0.00015708,-0.00025916,0.000120
 81,0.00002768,0.00023773,-0.00001154,-0.00006228,-0.00000563,0.0001943
 3,-0.00020104,0.00001829,0.00001117,0.00004345,-0.00002240,-0.00001705
 ,-0.00000311,0.00003467,-0.00016839,-0.00079974,0.00059655,0.00001589,
 0.00125835,-0.00056511,0.00014650,0.00014972,-0.00018580,-0.00009988,0
 .00184152,0.00026571,-0.00076399,-0.00347324,-0.00224449,-0.00313094,0
 .05226411,-0.01695857,-0.00153583,-0.01495354,0.00197559,0.00260610,-0
 .00435623,-0.00069554,0.00030577,-0.00087212,0.00049660,0.00060367,-0.
 00021851,-0.00025527,-0.00035381,-0.00006347,-0.00584915,0.00149245,-0
 .00567389,-0.12973603,0.00286362,-0.19546175,-0.00016213,-0.00094639,-
 0.00089362,-0.00000118,-0.00037941,-0.00005006,-0.00012462,0.00014665,
 -0.00010013,-0.00009716,0.00008324,-0.00015003,0.00004599,-0.00003210,
 0.00015431,0.00001261,-0.00008836,0.00001302,0.00005573,-0.00008176,0.
 00002849,0.00001775,0.00001899,-0.00001156,-0.00000657,-0.00002942,0.0
 0001606,0.00042370,0.00067534,-0.00117077,0.00059255,-0.00060280,0.001
 13910,0.00027327,-0.00013986,-0.00010433,0.00033183,0.00007089,0.00131
 172,0.00035522,-0.00071600,-0.00039746,0.14200080,-0.00408209,0.211636
 41,-0.01017268,0.00180076,0.00209465,0.00072518,0.00062585,0.00004847,
 0.00014554,-0.00137495,-0.00033598,0.00016883,-0.00002566,-0.00011375,
 -0.00001935,0.00006816,0.00004433,0.00553971,-0.00448962,-0.00421625,-
 0.24879971,0.08833675,0.07826257,-0.00003104,0.00006622,0.00011514,-0.
 00000551,0.00005633,0.00005380,-0.00000336,0.00000105,0.00001369,-0.00
 002171,-0.00001302,0.00005812,0.00002414,0.00000842,-0.00004277,0.0000
 0113,-0.00003184,-0.00004315,0.00003942,0.00005032,-0.00001036,-0.0000
 1934,-0.00000552,0.00001726,0.00000003,0.00000952,-0.00000303,0.001181
 61,-0.00042841,-0.00027289,0.00049436,-0.00138885,0.00225925,0.0001148
 5,0.00004985,-0.00024230,0.00044435,-0.00063665,0.00015914,0.00203522,
 -0.00032051,-0.00016331,-0.01877878,0.00807942,0.00730379,0.26693376,-
 0.01960982,0.00528877,0.00739702,-0.00001808,0.00042996,-0.00014717,-0
 .00082282,-0.00433078,-0.00013729,0.00112987,0.00083897,0.00019703,-0.
 00058127,-0.00002868,-0.00048779,0.02333547,-0.01377842,-0.01102711,0.
 08825169,-0.08134897,-0.03379121,0.00014695,0.00009568,0.00000477,-0.0
 0007161,-0.00022460,0.00002203,-0.00002914,0.00009996,-0.00002057,0.00
 043306,0.00020311,-0.00001912,-0.00015503,-0.00015468,0.00004753,0.000
 02993,0.00001603,0.00003385,-0.00024646,0.00005232,0.00005182,0.000061
 41,-0.00006088,-0.00003161,0.00000824,-0.00000686,0.00000925,-0.000356
 53,0.00110707,-0.00059036,-0.00180310,-0.00136814,0.00375854,0.0000707
 9,0.00008614,0.00004009,-0.00019945,-0.00284619,-0.00188113,0.00021724
 ,0.00161492,0.00018584,0.00076852,0.00004109,0.00014111,-0.09044966,0.
 09437813,0.02285881,-0.00831526,-0.00748309,-0.00030258,0.00021491,0.0
 0048960,-0.00046653,-0.00139314,-0.00125750,0.00072919,0.00044881,0.00
 006941,-0.00044633,-0.00011442,-0.00029093,0.00871937,-0.00477897,-0.0
 0355469,0.07560151,-0.03316372,-0.08147101,-0.00047625,0.00007260,-0.0
 0021130,-0.00005476,-0.00018099,-0.00002230,-0.00003618,0.00006523,-0.
 00003401,0.00012236,0.00005071,-0.00001044,-0.00003332,-0.00003669,0.0
 0001430,0.00000984,-0.00001991,0.00001006,-0.00008153,0.00000047,0.000
 01613,0.00002627,-0.00000793,0.00000430,0.00000276,-0.00001863,0.00000
 444,-0.00030981,-0.00025492,0.00147855,0.00120088,0.00177401,-0.003110
 33,-0.00001217,0.00009695,0.00005143,0.00005227,-0.00066682,-0.0005459
 8,0.00013945,0.00002155,0.00108790,-0.02222540,0.00991694,0.01019653,-
 0.08499450,0.03631906,0.08459951,-0.00004170,0.00001309,0.00001045,0.0
 0014452,-0.00006738,0.00006673,-0.00019969,0.00017357,-0.00001754,-0.0
 0055841,-0.00046580,-0.00047273,-0.00015877,0.00054642,-0.00050734,0.0
 0001837,0.00013498,0.00005047,-0.00000637,-0.00000167,-0.00002380,-0.0
 0003037,-0.00000785,-0.00001995,-0.00135871,0.01724502,0.00051449,-0.0
 4401678,-0.01363327,-0.00406380,0.00165789,0.01925683,0.01190442,-0.00
 070022,-0.00253302,0.00056017,-0.00755830,-0.02984534,-0.01770010,-0.0
 0140601,-0.00160045,-0.00002056,0.00006972,-0.00072923,-0.00031216,0.0
 0090941,0.00140794,0.00004997,0.00001030,-0.00000064,-0.00000160,0.000
 02215,0.00000837,-0.00000995,0.00011676,0.00017671,-0.00005649,-0.0001
 3712,-0.00002774,0.00004770,0.00006660,-0.00007412,0.00000017,-0.00000
 119,0.00001761,0.00001704,0.00000844,0.00000376,0.00000737,0.05670476,
 0.00001607,0.00003988,0.00009559,0.00000313,-0.00012452,-0.00013937,-0
 .00014028,0.00020495,-0.00005884,0.00202309,0.00357711,0.00167758,0.00
 045048,-0.00172358,0.00105942,-0.00006348,-0.00014496,0.00008417,0.000
 04258,0.00003693,-0.00004604,0.00003634,0.00003592,0.00000711,0.001612
 01,-0.03055188,-0.00437247,-0.01288003,-0.24337869,-0.09898812,0.00080
 386,0.00229046,-0.00388937,0.00077006,-0.00068025,0.00091384,-0.002132
 12,-0.00453228,-0.00348731,-0.00068972,0.00025589,0.00017350,0.0003419
 3,-0.00000256,-0.00022527,0.00014278,0.00065756,0.00045403,-0.00000026
 ,-0.00002231,-0.00001847,-0.00002718,-0.00000047,-0.00002194,0.0000082
 1,-0.00002196,-0.00006714,-0.00005144,-0.00001231,0.00001503,0.0000454
 2,-0.00002990,0.00000460,-0.00001295,-0.00001015,-0.00001720,0.0000065
 0,-0.00003014,-0.00001268,0.01047334,0.27176525,-0.00000904,-0.0000207
 8,-0.00009522,0.00008429,0.00003533,0.00023097,0.00006457,0.00021347,-
 0.00016574,-0.00164642,-0.00074720,-0.00091440,-0.00034941,0.00125872,
 -0.00098441,-0.00007138,0.00008457,-0.00022768,0.00002424,0.00002238,0
 .00010172,-0.00005674,-0.00004507,-0.00001734,-0.00309954,0.03166008,0
 .00435029,-0.00258682,-0.11463909,-0.10320542,-0.00170907,-0.02899927,
 -0.01669215,0.00165501,0.00471579,-0.00147052,-0.00249448,-0.00457066,
 -0.00258134,0.00112692,0.00182216,0.00064931,0.00007423,0.00094618,0.0
 0007238,0.00000115,0.00152635,0.00145868,-0.00000164,0.00000764,0.0000
 3039,0.00001603,-0.00000034,0.00001843,0.00009688,0.00007428,0.0000610
 4,0.00007398,0.00007042,0.00014428,-0.00004747,0.00001918,0.00001330,0
 .00000032,0.00000729,0.00001128,-0.00000411,-0.00001905,0.00000079,0.0
 1018585,0.10629950,0.11785764,0.00016213,0.00003834,0.00003113,0.00010
 843,-0.00016632,0.00024296,-0.00015314,0.00083721,-0.00040102,-0.00021
 185,-0.00120702,-0.00067466,-0.00005310,0.00047170,0.00004762,-0.00059
 240,0.00066694,-0.00044168,0.00022913,0.00003580,0.00015888,-0.0000205
 1,-0.00008444,-0.00000974,0.00111969,0.00142771,0.00064897,-0.00479048
 ,-0.03002651,-0.01674202,0.00127986,-0.00014841,-0.00307242,0.00047662
 ,-0.00006674,0.00105223,-0.05463464,-0.03099037,-0.02041267,-0.0001047
 2,0.00026717,0.00028075,0.00000663,-0.00000041,-0.00001838,0.00004953,
 0.00008334,0.00007925,-0.00002862,-0.00003521,0.00002712,-0.00008961,-
 0.00000491,0.00000622,0.00034502,0.00071519,-0.00039423,-0.00031112,0.
 00012070,0.00103723,0.00016924,-0.00020965,0.00007819,-0.00003115,-0.0
 0000116,-0.00002147,-0.00001190,-0.00012389,-0.00003438,-0.00635575,-0
 .00106035,-0.00092796,0.05924594,0.00007517,-0.00002861,-0.00002827,0.
 00026489,-0.00012171,0.00008453,0.00057790,-0.00190355,0.00014242,-0.0
 0010685,-0.00044588,0.00010030,-0.00018652,0.00031267,-0.00030274,0.00
 026339,-0.00035541,-0.00010190,0.00002738,-0.00001984,0.00008654,-0.00
 005951,0.00002136,-0.00000873,-0.00036547,0.00094723,-0.00001404,-0.00
 107659,-0.00279579,-0.00025066,-0.00043653,0.00040801,-0.00225681,0.00
 079721,0.00034086,0.00119217,-0.03366851,-0.23337876,-0.12422707,0.000
 19580,-0.00019604,0.00045117,-0.00008900,0.00000829,0.00000253,-0.0000
 2739,0.00007434,0.00000426,-0.00002662,-0.00001447,0.00000897,0.000009
 70,0.00000244,0.00000919,0.00118542,-0.00165013,0.00081230,0.00039927,
 -0.00002389,-0.00009649,-0.00001766,0.00003813,0.00004164,0.00001099,0
 .00001936,-0.00000497,0.00000155,0.00000032,-0.00000299,-0.00075088,0.
 00124668,0.00004235,0.03501923,0.25418688,-0.00005225,0.00009522,0.000
 25690,0.00085276,-0.00075174,0.00002703,-0.00143124,0.00053813,0.00012
 195,-0.00032752,-0.00132468,-0.00071961,-0.00000101,0.00042471,0.00016
 440,0.00036926,-0.00052029,0.00037935,0.00005254,0.00004831,0.00003436
 ,-0.00012116,0.00002089,-0.00009043,-0.00022785,0.00074388,0.00024153,
 -0.00067190,-0.00411881,-0.00305299,0.00087449,0.00108044,-0.00010565,
 -0.00021400,-0.00031258,0.00025995,-0.02172511,-0.12433676,-0.13098413
 ,-0.00046354,0.00003823,0.00007684,-0.00000090,-0.00004754,0.00001253,
 0.00004880,0.00011832,-0.00006709,0.00000126,-0.00003575,-0.00003603,-
 0.00001655,0.00001792,-0.00006134,0.00079497,0.00085667,-0.00006465,0.
 00033103,-0.00016470,0.00027381,0.00007568,0.00004250,-0.00017431,-0.0
 0002163,-0.00002638,-0.00004302,0.00001102,-0.00001176,-0.00002755,-0.
 00078282,0.00021465,0.00073187,0.02404821,0.13638265,0.13624410,-0.000
 01883,0.00000554,-0.00002214,0.00025509,-0.00010053,0.00014867,-0.0004
 6131,-0.00006200,-0.00003156,-0.00020661,-0.00238447,-0.00000353,-0.00
 021397,0.00115342,-0.00070626,0.00008955,0.00012667,-0.00008043,-0.000
 01081,-0.00001006,0.00005127,-0.00008424,-0.00001600,-0.00002544,-0.00
 594885,-0.00055444,-0.00184003,-0.00938129,0.02539578,-0.01629777,-0.0
 0145827,0.00108423,-0.00202728,0.00073320,-0.00084271,0.00154552,-0.08
 186381,0.07225926,-0.04713524,0.00094067,-0.00004628,0.00036635,-0.000
 11322,-0.00001004,0.00011532,-0.00102622,0.00097928,-0.00010716,0.0000
 0487,0.00000705,0.00000995,0.00002311,0.00000874,0.00001038,0.00033587
 ,0.00003842,0.00006255,0.00000938,0.00000212,0.00001148,-0.00000628,-0
 .00000248,-0.00004860,0.00000521,0.00001492,0.00001231,0.00000056,0.00
 001381,0.00000558,0.00156152,0.00021663,-0.00042305,0.00159211,-0.0035
 3105,0.00338764,0.08831651,0.00002536,0.00007248,0.00015976,0.00049918
 ,-0.00045604,0.00003123,-0.00084792,0.00013547,0.00003393,-0.00063207,
 -0.00081871,-0.00038594,0.00005259,0.00038708,-0.00003735,-0.00002002,
 -0.00000907,0.00003114,0.00006317,0.00003945,0.00005287,-0.00005720,0.
 00000358,-0.00004796,-0.00188590,0.00171141,-0.00047161,-0.00233149,0.
 00376765,-0.00410142,0.00093647,-0.00019666,0.00200932,-0.00187529,0.0
 0021184,-0.00017155,0.07571535,-0.21617504,0.11026817,-0.00041368,0.00
 013375,-0.00052509,0.00013325,-0.00004194,-0.00000153,-0.00003867,0.00
 005542,-0.00023653,-0.00000761,-0.00003242,-0.00001249,-0.00004333,0.0
 0001246,-0.00004165,0.00077022,-0.00004018,-0.00007909,-0.00005171,-0.
 00005564,0.00017336,0.00007482,-0.00003874,-0.00004589,-0.00002178,-0.
 00000470,-0.00002113,0.00001022,-0.00003829,-0.00001558,0.00021500,0.0
 0120697,-0.00035136,0.00935943,-0.02047639,0.01463616,-0.07897906,0.23
 150235,-0.00001522,0.00000469,0.00000851,0.00023097,-0.00012159,0.0001
 0666,-0.00021483,-0.00013925,0.00004915,0.00003943,-0.00159212,-0.0000
 5624,-0.00012309,0.00051845,-0.00030944,-0.00002590,0.00001796,0.00000
 636,0.00003438,0.00000483,0.00002939,-0.00003117,-0.00003184,-0.000023
 97,-0.00221513,0.00057683,0.00000938,-0.00125159,0.00442799,-0.0044748
 2,0.00041633,-0.00015636,0.00016360,0.00108073,-0.00007877,-0.00089951
 ,-0.04975822,0.11031837,-0.12071653,-0.00037869,0.00000081,-0.00001055
 ,0.00000585,-0.00000084,-0.00000353,-0.00028172,0.00027147,0.00014495,
 -0.00000091,0.00000164,0.00000337,0.00000897,0.00000694,-0.00000404,0.
 00027702,0.00003151,-0.00011195,-0.00004949,-0.00002031,0.00012522,0.0
 0003974,-0.00002457,-0.00001316,-0.00000335,0.00000595,0.00000611,0.00
 000155,-0.00001131,-0.00000237,0.00005266,0.00004330,0.00009714,0.0075
 2832,-0.01484417,0.01048820,0.05544388,-0.12062444,0.12814331,0.000016
 27,0.00003986,0.00007928,0.00006720,-0.00009523,-0.00009910,-0.0001721
 4,0.00012092,0.00006828,-0.00055646,0.00105218,-0.00024290,0.00009768,
 -0.00014732,0.00023068,0.00003678,-0.00000550,0.00007260,-0.00001191,0
 .00001171,-0.00004700,0.00000198,0.00003651,-0.00000210,0.00342668,-0.
 00053304,0.00019380,-0.01930877,-0.00345748,0.02951426,-0.00420917,-0.
 00075591,-0.00508587,0.00071508,0.00012122,0.00057525,-0.11534603,-0.0
 1001372,0.11489737,-0.00185111,-0.00029766,0.00213057,-0.00056914,0.00
 016263,-0.00000764,-0.00011128,-0.00010280,0.00004598,0.00000013,-0.00
 001120,-0.00001544,-0.00001545,0.00000428,-0.00001521,0.00006753,0.000
 03565,0.00004906,-0.00008166,-0.00002479,-0.00003762,0.00006759,-0.000
 04541,-0.00000587,-0.00000346,0.00000062,-0.00000708,0.00000627,-0.000
 00387,-0.00000194,0.00123894,0.00006535,0.00002366,0.00260465,0.001514
 68,-0.00479017,0.00692608,-0.00064932,-0.01081051,0.12696372,0.0000356
 5,-0.00005715,-0.00012023,-0.00023242,0.00020866,0.00010969,0.00051048
 ,-0.00009703,-0.00010604,0.00031309,-0.00010610,-0.00006110,-0.0000845
 6,0.00005740,-0.00005398,-0.00006369,0.00020278,-0.00034385,0.00006749
 ,-0.00000352,0.00004166,0.00003862,-0.00005330,0.00002595,0.00054461,0
 .00009370,-0.00032473,-0.00144156,-0.00171814,0.00462283,-0.00056472,0
 .00019471,-0.00005040,-0.00048925,0.00038346,0.00002742,-0.01123226,-0
 .05190709,0.01695471,-0.00039907,0.00002212,0.00024161,-0.00004026,0.0
 0003621,-0.00005543,-0.00001706,0.00005545,-0.00003422,-0.00000581,0.0
 0000435,0.00002533,0.00000319,-0.00000406,0.00001827,-0.00032275,0.000
 02130,-0.00020843,-0.00002211,-0.00011384,0.00027943,0.00005540,-0.000
 12477,0.00009990,-0.00000512,0.00001702,0.00002330,-0.00000621,-0.0000
 3582,0.00000140,0.00006474,-0.00005165,0.00058717,0.01508266,0.0038039
 0,-0.02360770,-0.01476673,-0.00085609,0.02141482,0.01297765,0.05002750
 ,0.00006720,-0.00001801,-0.00004752,-0.00013886,0.00006644,0.00005712,
 0.00039730,-0.00012459,-0.00004761,0.00000924,0.00031049,0.00003177,0.
 00010252,-0.00017679,0.00010510,-0.00020187,0.00013320,-0.00018678,0.0
 0004325,0.00000979,0.00004548,0.00002775,-0.00002278,0.00001282,-0.000
 05657,-0.00045248,0.00121800,-0.00619302,-0.00051180,0.00597115,-0.002
 66591,0.00054861,-0.00161179,0.00123341,-0.00005259,0.00063966,0.11857
 873,0.01750105,-0.24953985,0.00004305,-0.00017923,0.00076099,-0.000304
 67,-0.00003730,0.00012549,0.00000897,-0.00020023,0.00007603,-0.0000091
 4,-0.00001343,0.00001711,-0.00002579,-0.00000413,0.00000642,-0.0002100
 0,-0.00001933,-0.00013761,0.00000567,-0.00004711,0.00017215,0.00002272
 ,-0.00003752,0.00007498,-0.00000377,0.00001321,0.00000748,-0.00000038,
 -0.00003248,-0.00000142,0.00052135,0.00030190,0.00052473,0.00788356,0.
 00277781,-0.01388602,0.00757761,-0.00022533,-0.01275522,-0.12671233,-0
 .01950739,0.26836733\\0.00000041,-0.00000260,-0.00001895,0.00001773,-0
 .00002493,0.00000915,-0.00000496,0.00002684,-0.00001014,-0.00000627,0.
 00001247,-0.00000279,0.00001051,-0.00000186,-0.00000221,0.00000249,0.0
 0000185,-0.00000029,-0.00001051,-0.00000511,-0.00000337,0.00000318,-0.
 00000242,-0.00000139,0.00001185,-0.00001292,0.00000728,0.00000014,0.00
 000653,0.00000134,0.00000236,-0.00000314,-0.00000598,-0.00001139,0.000
 00319,0.00000514,-0.00000335,-0.00000916,0.00001183,-0.00000426,0.0000
 0421,-0.00000016,-0.00001193,0.00000256,0.00000200,-0.00000103,0.00000
 061,-0.00000145,0.00000292,0.00000068,-0.00000350,0.00000417,0.0000013
 8,0.00000236,0.00000972,-0.00000495,0.00000132,-0.00000679,0.00000178,
 0.00000242,-0.00000381,0.00000354,-0.00000802,-0.00000055,0.00000259,-
 0.00000282,0.00000009,0.00000341,0.00000043,0.00000458,-0.00000332,0.0
 0000426,-0.00000067,0.00000068,0.00000175,-0.00000665,-0.00000110,0.00
 000584,0.00000203,-0.00000081,0.00000596\\\@


 ... I FELL INTO A REVERIE ... THE ATOMS WERE GAMBOLING BEFORE MY EYES
 ... I SAW HOW TWO SMALL ONES UNITED TO FORM A PAIR;
 HOW THE LARGER ONES SEIZED TWO OF THE SMALLER ONES;
 HOW STILL LARGER ONES KEPT HOLD OF THREE OR FOUR
 SMALLER ONES ... I SAW HOW THE LARGER ONES FORMED A CHAIN ...
 THIS WAS THE ORIGIN OF THE STRUCTURE THEORY.

                                   -- C.F.KEKULE VON STRADONITZ
 Job cpu time:       0 days  1 hours 26 minutes 47.6 seconds.
 File lengths (MBytes):  RWF=    223 Int=      0 D2E=      0 Chk=      7 Scr=      1
 Normal termination of Gaussian 09 at Wed Jul  7 12:14:04 2021.
